      -----------------------------------------------------------      
     |                   =====================                   |     
     |                           x T B                           |     
     |                   =====================                   |     
     |                         S. Grimme                         |     
     |          Mulliken Center for Theoretical Chemistry        |     
     |                    University of Bonn                     |     
      -----------------------------------------------------------      

   * xtb version 6.7.1 (edcfbbe) compiled by 'conda@afd1a870197c' on 2025-04-11

   xtb is free software: you can redistribute it and/or modify it under
   the terms of the GNU Lesser General Public License as published by
   the Free Software Foundation, either version 3 of the License, or
   (at your option) any later version.
   
   xtb is distributed in the hope that it will be useful,
   but WITHOUT ANY WARRANTY; without even the implied warranty of
   MERCHANTABILITY or FITNESS FOR A PARTICULAR PURPOSE.  See the
   GNU Lesser General Public License for more details.
   
   Cite this work as:
   * C. Bannwarth, E. Caldeweyher, S. Ehlert, A. Hansen, P. Pracht,
     J. Seibert, S. Spicher, S. Grimme, WIREs Comput. Mol. Sci., 2020, 11,
     e01493. DOI: 10.1002/wcms.1493
   
   for GFN2-xTB:
   * C. Bannwarth, S. Ehlert and S. Grimme., J. Chem. Theory Comput., 2019,
     15, 1652-1671. DOI: 10.1021/acs.jctc.8b01176
   for GFN1-xTB:
   * S. Grimme, C. Bannwarth, P. Shushkov, J. Chem. Theory Comput., 2017,
     13, 1989-2009. DOI: 10.1021/acs.jctc.7b00118
   for GFN0-xTB:
   * P. Pracht, E. Caldeweyher, S. Ehlert, S. Grimme, ChemRxiv, 2019, preprint.
     DOI: 10.26434/chemrxiv.8326202.v1
   for GFN-FF:
   * S. Spicher and S. Grimme, Angew. Chem. Int. Ed., 2020, 59, 15665-15673.
     DOI: 10.1002/anie.202004239
   
   for ALPB and GBSA implicit solvation:
   * S. Ehlert, M. Stahn, S. Spicher, S. Grimme, J. Chem. Theory Comput.,
     2021, 17, 4250-4261. DOI: 10.1021/acs.jctc.1c00471
   
   for ddCOSMO and CPCM-X implicit solvation:
   * M. Stahn, S. Ehlert, S. Grimme, J. Phys. Chem. A,
     2023, XX, XXXX-XXXX. DOI: 10.1021/acs.jpca.3c04382
   
   for DFT-D4:
   * E. Caldeweyher, C. Bannwarth and S. Grimme, J. Chem. Phys., 2017,
     147, 034112. DOI: 10.1063/1.4993215
   * E. Caldeweyher, S. Ehlert, A. Hansen, H. Neugebauer, S. Spicher,
     C. Bannwarth and S. Grimme, J. Chem. Phys., 2019, 150, 154122.
     DOI: 10.1063/1.5090222
   * E. Caldeweyher, J.-M. Mewes, S. Ehlert and S. Grimme, Phys. Chem. Chem. Phys.
     2020, 22, 8499-8512. DOI: 10.1039/D0CP00502A
   
   for sTDA-xTB:
   * S. Grimme and C. Bannwarth, J. Chem. Phys., 2016, 145, 054103.
     DOI: 10.1063/1.4959605
   
   in the mass-spec context:
   * V. Asgeirsson, C. Bauer and S. Grimme, Chem. Sci., 2017, 8, 4879.
     DOI: 10.1039/c7sc00601b
   * J. Koopman and S. Grimme, ACS Omega 2019, 4, 12, 15120-15133.
     DOI: 10.1021/acsomega.9b02011
   
   for metadynamics refer to:
   * S. Grimme, J. Chem. Theory Comput., 2019, 155, 2847-2862
     DOI: 10.1021/acs.jctc.9b00143
   
   for SPH calculations refer to:
   * S. Spicher and S. Grimme, J. Chem. Theory Comput., 2021, 17, 1701-1714
     DOI: 10.1021/acs.jctc.0c01306
   
   for ONIOM refer to:
   * C. Plett, A. Katbashev, S. Ehlert, S. Grimme, M. Bursch,
     Phys. Chem. Chem. Phys., 2023, 25, 17860-17868. DOI: 10.1039/D3CP02178E
   
   for DIPRO refer to:
   * J. Kohn, N. Gildemeister, S. Grimme, D. Fazzi, A. Hansen,
     J. Chem. Phys., 2023, just accepted.
   
   for PTB refer to:
   * S. Grimme, M. Mueller, A. Hansen, J. Chem. Phys., 2023, 158, 124111.
     DOI: 10.1063/5.0137838
   
   with help from (in alphabetical order)
   P. Atkinson, C. Bannwarth, F. Bohle, G. Brandenburg, E. Caldeweyher
   M. Checinski, S. Dohm, S. Ehlert, S. Ehrlich, I. Gerasimov, C. Hölzer
   A. Katbashev, J. Kohn, J. Koopman, C. Lavigne, S. Lehtola, F. März, M. Müller,
   F. Musil, H. Neugebauer, J. Pisarek, C. Plett, P. Pracht, F. Pultar,
   J. Seibert, P. Shushkov, S. Spicher, M. Stahn, M. Steiner, T. Strunk,
   J. Stückrath, T. Rose, and J. Unsleber
   
 * started run on 2025/05/05 at 16:54:16.937     
   ID    Z sym.   atoms
    1    7 N      1, 9, 16, 17, 25, 26, 31, 40, 46, 49, 50, 58, 64, 67
    2    6 C      2, 3, 5-8, 10, 11, 13, 14, 18, 19, 21-23, 27, 28, 30, 32,
                  33, 35-37, 41, 42, 44, 45, 47, 48, 51, 52, 54-57, 59, 60,
                  62, 63, 65, 66
    3    8 O      4, 12, 15, 20, 24, 29, 34, 38, 39, 43, 53, 61
    4    1 H      68-157

           -------------------------------------------------
          |                Calculation Setup                |
           -------------------------------------------------

          program call               : xtb /tmp/tmp1wgb3vif/HID/input.xyz --alpb ether --chrg 0 --input /tmp/tmp1wgb3vif/HID/constraints.inp --gfn 2
          hostname                   : fedora
          coordinate file            : /tmp/tmp1wgb3vif/HID/input.xyz
          omp threads                :                    32


molecular fragmentation (1/2 indicates fragments):
111111111111111122222222222222222222222222222222222222222222222222222222
222222211111111111111111112222222222222222222222222222222222222222222222
2222222222222
# atoms in fragment 1/2:    35   122
 fragment masses (1/2) :      229.28      741.96
CMA distance (Bohr)    :  14.020
constraining FC (au)   :  0.0500
########################################################################
[WARNING] Please study the warnings concerning your input carefully
-1- readin_getIntValue: could not parse 'S'
########################################################################

           -------------------------------------------------
          |                 G F N 2 - x T B                 |
           -------------------------------------------------

        Reference                      10.1021/acs.jctc.8b01176
      * Hamiltonian:
        H0-scaling (s, p, d)           1.850000    2.230000    2.230000
        zeta-weighting                 0.500000
      * Dispersion:
        s8                             2.700000
        a1                             0.520000
        a2                             5.000000
        s9                             5.000000
      * Repulsion:
        kExp                           1.500000    1.000000
        rExp                           1.000000
      * Coulomb:
        alpha                          2.000000
        third order                    shell-resolved
        anisotropic                    true
        a3                             3.000000
        a5                             4.000000
        cn-shift                       1.200000
        cn-exp                         4.000000
        max-rad                        5.000000

      * Solvation model:               ALPB
        Solvent                        ether
        Parameter file                 internal GFN2-xTB/ALPB
        Dielectric constant                4.3300E+00
        Reference state                gsolv [1 M gas/solution]
        Free energy shift                  4.9534E-03 Eh       3.1083E+00 kcal/mol
        Temperature                        2.9815E+02 K
        Density                            7.1300E-01 kg/L
        Solvent mass                       7.4120E+01 g/mol
        Interaction kernel             P16
        Born radius scaling (c1)           1.5847E+00
        Born radii integrator          GBOBC
        Born offset                        0.0000E+00 a0       0.0000E+00 AA
        H-bond correction              true
        Ion screening                  false
        Surface tension                    1.0000E-05 Eh       1.5569E+01 dyn/cm
        Grid points                               230 per atom

          ...................................................
          :                      SETUP                      :
          :.................................................:
          :  # basis functions                 358          :
          :  # atomic orbitals                 358          :
          :  # shells                          224          :
          :  # electrons                       396          :
          :  max. iterations                   250          :
          :  Hamiltonian                  GFN2-xTB          :
          :  restarted?                      false          :
          :  GBSA solvation                   true          :
          :  PC potential                    false          :
          :  electronic temp.          300.0000000     K    :
          :  accuracy                    1.0000000          :
          :  -> integral cutoff          0.2500000E+02      :
          :  -> integral neglect         0.1000000E-07      :
          :  -> SCF convergence          0.1000000E-05 Eh   :
          :  -> wf. convergence          0.1000000E-03 e    :
          :  Broyden damping             0.4000000          :
          :  net charge                          0          :
          :  unpaired electrons                  0          :
          ...................................................

 iter      E             dE          RMSdq      gap      omega  full diag
   1   -223.4811859 -0.223481E+03  0.478E+00    0.10       0.0  T
   2   -221.2661547  0.221503E+01  0.441E+00    0.23       1.0  T
   3   -224.1372313 -0.287108E+01  0.309E+00    0.24       1.0  T
   4   -225.0260765 -0.888845E+00  0.217E+00    0.17       1.0  T
   5   -224.8195067  0.206570E+00  0.219E+00    0.23       1.0  T
   6   -225.1617884 -0.342282E+00  0.166E+00    0.12       1.0  T
   7   -225.1942212 -0.324328E-01  0.176E+00    0.07       1.0  T
   8   -225.0943745  0.998467E-01  0.160E+00    0.29       1.0  T
   9   -225.2024656 -0.108091E+00  0.144E+00    0.14       1.0  T
  10   -225.6430433 -0.440578E+00  0.108E+00    0.12       1.0  T
  11   -225.3943201  0.248723E+00  0.148E+00    0.12       1.0  T
  12   -225.6519603 -0.257640E+00  0.101E+00    0.25       1.0  T
  13   -225.1031743  0.548786E+00  0.178E+00    0.18       1.0  T
  14   -225.6943978 -0.591223E+00  0.856E-01    0.14       1.0  T
  15   -225.1187063  0.575691E+00  0.177E+00    0.23       1.0  T
  16   -225.6687602 -0.550054E+00  0.877E-01    0.29       1.0  T
  17   -225.6826616 -0.139014E-01  0.817E-01    0.22       1.0  T
  18   -225.6969663 -0.143047E-01  0.770E-01    0.17       1.0  T
  19   -225.7298077 -0.328414E-01  0.674E-01    0.08       1.0  T
  20   -225.7163867  0.134210E-01  0.710E-01    0.12       1.0  T
  21   -225.7700158 -0.536291E-01  0.534E-01    0.06       1.0  T
  22   -225.7561032  0.139126E-01  0.576E-01    0.09       1.0  T
  23   -225.7859519 -0.298487E-01  0.450E-01    0.05       1.0  T
  24   -225.7532170  0.327349E-01  0.569E-01    0.02       1.0  T
  25   -225.7576274 -0.441039E-02  0.543E-01    0.10       1.0  T
  26   -225.7799011 -0.222737E-01  0.451E-01    0.08       1.0  T
  27   -225.7738836  0.601750E-02  0.471E-01    0.08       1.0  T
  28   -225.7807301 -0.684651E-02  0.435E-01    0.08       1.0  T
  29   -225.5842809  0.196449E+00  0.108E+00    0.03       1.0  T
  30   -225.4782325  0.106048E+00  0.128E+00    0.03       1.0  T
  31   -225.4902823 -0.120499E-01  0.126E+00    0.03       1.0  T
  32   -225.5484009 -0.581185E-01  0.115E+00    0.03       1.0  T
  33   -225.7904397 -0.242039E+00  0.467E-01    0.02       1.0  T
  34   -225.5083692  0.282071E+00  0.118E+00    0.03       1.0  T
  35   -225.5073502  0.101901E-02  0.118E+00    0.03       1.0  T
  36   -225.5095127 -0.216257E-02  0.116E+00    0.03       1.0  T
  37   -225.8148507 -0.305338E+00  0.231E-01    0.06       1.0  T
  38   -225.7982954  0.165553E-01  0.322E-01    0.08       1.0  T
  39   -225.7872370  0.110585E-01  0.384E-01    0.08       1.0  T
  40   -225.7880192 -0.782272E-03  0.379E-01    0.08       1.0  T
  41   -225.7982232 -0.102040E-01  0.329E-01    0.08       1.0  T
  42   -225.8054500 -0.722679E-02  0.291E-01    0.08       1.0  T
  43   -225.7984527  0.699728E-02  0.322E-01    0.08       1.0  T
  44   -225.7867569  0.116958E-01  0.381E-01    0.08       1.0  T
  45   -225.7936134 -0.685649E-02  0.341E-01    0.06       1.0  T
  46   -225.7907352  0.287821E-02  0.367E-01    0.07       1.0  T
  47   -225.8008913 -0.101561E-01  0.321E-01    0.07       1.0  T
  48   -225.8031118 -0.222049E-02  0.302E-01    0.07       1.0  T
  49   -225.7927349  0.103769E-01  0.419E-01    0.01       1.0  T
  50   -225.7950449 -0.230994E-02  0.339E-01    0.07       1.0  T
  51   -225.8211650 -0.261201E-01  0.179E-01    0.03       1.0  T
  52   -225.8098492  0.113157E-01  0.249E-01    0.07       1.0  T
  53   -225.8207600 -0.109107E-01  0.178E-01    0.03       1.0  T
  54   -225.8209454 -0.185404E-03  0.150E-01    0.06       1.0  T
  55   -225.8218686 -0.923268E-03  0.144E-01    0.02       1.0  T
  56   -225.8243697 -0.250103E-02  0.918E-02    0.05       1.0  T
  57   -225.8241558  0.213894E-03  0.933E-02    0.03       1.0  T
  58   -225.8257689 -0.161311E-02  0.475E-02    0.04       1.0  T
  59   -225.8256644  0.104521E-03  0.483E-02    0.03       1.0  T
  60   -225.8262184 -0.554055E-03  0.171E-02    0.04       1.0  T
  61   -225.8262234 -0.496807E-05  0.149E-02    0.04       1.0  T
  62   -225.8262762 -0.528490E-04  0.606E-03    0.04       1.3  T
  63   -225.8262840 -0.774106E-05  0.283E-03    0.04       2.8  T
  64   -225.8262819  0.207043E-05  0.421E-03    0.04       1.9  T
  65   -225.8262828 -0.894476E-06  0.311E-03    0.04       2.6  T
  66   -225.8262677  0.150657E-04  0.780E-03    0.04       1.0  T
  67   -225.8262841 -0.163178E-04  0.225E-03    0.04       3.6  T
  68   -225.8262837  0.326449E-06  0.246E-03    0.04       3.2  T
  69   -225.8262855 -0.174385E-05  0.385E-04    0.04      20.8  T
  70   -225.8262855 -0.325435E-07  0.167E-04    0.04      47.7  T
  71   -225.8262855  0.178962E-07  0.296E-04    0.04      26.9  T

   *** convergence criteria satisfied after 71 iterations ***

         #    Occupation            Energy/Eh            Energy/eV
      -------------------------------------------------------------
         1        2.0000           -0.7373068             -20.0631
       ...           ...                  ...                  ...
       192        1.9960           -0.3922120             -10.6726
       193        1.9609           -0.3900379             -10.6135
       194        1.9487           -0.3897742             -10.6063
       195        1.9406           -0.3896307             -10.6024
       196        1.8464           -0.3886807             -10.5765
       197        1.7278           -0.3880739             -10.5600
       198        1.5081           -0.3873824             -10.5412 (HOMO)
       199        0.8221           -0.3859765             -10.5030 (LUMO)
       200        0.2498           -0.3844682             -10.4619
       201                         -0.3077190              -8.3735
       202                         -0.3004917              -8.1768
       203                         -0.2933614              -7.9828
       ...                                ...                  ...
       358                          0.8691246              23.6501
      -------------------------------------------------------------
                  HL-Gap            0.0014059 Eh            0.0383 eV
             Fermi-level           -0.3863180 Eh          -10.5122 eV

 SCC (total)                   0 d,  0 h,  0 min,  1.470 sec
 SCC setup                      ...        0 min,  0.002 sec (  0.113%)
 Dispersion                     ...        0 min,  0.005 sec (  0.324%)
 classical contributions        ...        0 min,  0.000 sec (  0.015%)
 integral evaluation            ...        0 min,  0.008 sec (  0.539%)
 iterations                     ...        0 min,  1.427 sec ( 97.057%)
 molecular gradient             ...        0 min,  0.028 sec (  1.878%)
 printout                       ...        0 min,  0.001 sec (  0.074%)

         :::::::::::::::::::::::::::::::::::::::::::::::::::::
         ::                     SUMMARY                     ::
         :::::::::::::::::::::::::::::::::::::::::::::::::::::
         :: total energy            -222.085504854338 Eh    ::
         :: total w/o Gsasa/hb      -222.014752472753 Eh    ::
         :: gradient norm              1.013938525688 Eh/a0 ::
         :: HOMO-LUMO gap              0.038257481723 eV    ::
         ::.................................................::
         :: SCC energy              -225.816153959278 Eh    ::
         :: -> isotropic ES            0.557165387968 Eh    ::
         :: -> anisotropic ES          0.050464022762 Eh    ::
         :: -> anisotropic XC          0.158049969328 Eh    ::
         :: -> dispersion             -0.162133641242 Eh    ::
         :: -> Gsolv                  -0.144311920722 Eh    ::
         ::    -> Gelec               -0.073559539137 Eh    ::
         ::    -> Gsasa               -0.065136249358 Eh    ::
         ::    -> Ghb                 -0.010569569805 Eh    ::
         ::    -> Gshift               0.004953437577 Eh    ::
         :: repulsion energy           3.730649104940 Eh    ::
         :: add. restraining           0.000000000000 Eh    ::
         :: total charge               0.000000000184 e     ::
         :::::::::::::::::::::::::::::::::::::::::::::::::::::

           -------------------------------------------------
          |                Property Printout                |
           -------------------------------------------------

    * Orbital Energies and Occupations

         #    Occupation            Energy/Eh            Energy/eV
      -------------------------------------------------------------
         1        2.0000           -0.7373068             -20.0631
       ...           ...                  ...                  ...
       186        2.0000           -0.4040700             -10.9953
       187        2.0000           -0.4038758             -10.9900
       188        2.0000           -0.4032219             -10.9722
       189        2.0000           -0.3974282             -10.8146
       190        2.0000           -0.3973811             -10.8133
       191        1.9995           -0.3942610             -10.7284
       192        1.9960           -0.3922120             -10.6726
       193        1.9609           -0.3900379             -10.6135
       194        1.9487           -0.3897742             -10.6063
       195        1.9406           -0.3896307             -10.6024
       196        1.8464           -0.3886807             -10.5765
       197        1.7278           -0.3880739             -10.5600
       198        1.5081           -0.3873824             -10.5412 (HOMO)
       199        0.8221           -0.3859765             -10.5030 (LUMO)
       200        0.2498           -0.3844682             -10.4619
       201                         -0.3077190              -8.3735
       202                         -0.3004917              -8.1768
       203                         -0.2933614              -7.9828
       204                         -0.2932606              -7.9800
       205                         -0.2390811              -6.5057
       206                         -0.2368764              -6.4457
       207                         -0.2312522              -6.2927
       208                         -0.2287314              -6.2241
       209                         -0.2212642              -6.0209
       ...                                ...                  ...
       358                          0.8691246              23.6501
      -------------------------------------------------------------
                  HL-Gap            0.0014059 Eh            0.0383 eV
             Fermi-level           -0.3863180 Eh          -10.5122 eV

     #   Z          covCN         q      C6AA      α(0)
     1   7 N        2.630    -0.364    29.390     8.051
     2   6 C        3.785     0.022    20.223     6.406
     3   6 C        2.754     0.263    22.561     7.778
     4   8 O        0.859    -0.497    23.708     6.528
     5   6 C        3.813    -0.090    22.197     6.706
     6   6 C        3.850    -0.018    20.861     6.496
     7   6 C        3.756    -0.116    22.777     6.805
     8   6 C        3.761    -0.120    22.841     6.813
     9   7 N        2.686    -0.170    24.680     7.378
    10   6 C        3.793     0.023    20.193     6.399
    11   6 C        2.763     0.194    23.860     7.999
    12   8 O        0.856    -0.337    20.458     6.064
    13   6 C        3.808    -0.108    22.559     6.761
    14   6 C        2.740     0.283    22.209     7.716
    15   8 O        0.858    -0.486    23.473     6.496
    16   7 N        2.637    -0.281    27.252     7.753
    17   7 N        2.628    -0.338    28.711     7.958
    18   6 C        3.782     0.033    20.038     6.377
    19   6 C        2.761     0.200    23.746     7.980
    20   8 O        0.856    -0.358    20.860     6.123
    21   6 C        3.801    -0.067    21.792     6.646
    22   6 C        3.801    -0.099    22.379     6.735
    23   6 C        2.739     0.283    22.198     7.714
    24   8 O        0.859    -0.487    23.504     6.500
    25   7 N        2.639    -0.252    26.569     7.655
    26   7 N        2.632    -0.357    29.199     8.025
    27   6 C        3.788     0.029    20.101     6.385
    28   6 C        2.756     0.265    22.532     7.773
    29   8 O        0.859    -0.500    23.795     6.540
    30   6 C        3.761    -0.122    22.893     6.821
    31   7 N        2.689    -0.150    24.247     7.313
    32   6 C        3.794     0.023    20.199     6.400
    33   6 C        2.762     0.201    23.721     7.976
    34   8 O        0.856    -0.342    20.558     6.079
    35   6 C        3.804    -0.073    21.888     6.660
    36   6 C        3.802    -0.078    21.994     6.677
    37   6 C        2.685     0.378    20.594     7.427
    38   8 O        0.856    -0.508    23.958     6.562
    39   8 O        0.856    -0.498    23.741     6.533
    40   7 N        2.628    -0.350    29.017     8.000
    41   6 C        3.789     0.032    20.041     6.376
    42   6 C        2.762     0.271    22.425     7.755
    43   8 O        0.859    -0.480    23.352     6.479
    44   6 C        3.814    -0.071    21.841     6.652
    45   6 C        3.088     0.059    26.572     8.450
    46   7 N        1.988    -0.256    27.477     7.774
    47   6 C        3.058     0.002    27.918     8.665
    48   6 C        2.109     0.160    27.017     8.399
    49   7 N        1.978    -0.243    27.148     7.727
    50   7 N        2.688    -0.157    24.386     7.334
    51   6 C        3.801     0.009    20.418     6.433
    52   6 C        2.755     0.268    22.480     7.764
    53   8 O        0.859    -0.500    23.792     6.540
    54   6 C        3.810    -0.087    22.155     6.700
    55   6 C        3.849    -0.015    20.804     6.488
    56   6 C        3.756    -0.118    22.814     6.810
    57   6 C        3.759    -0.118    22.817     6.810
    58   7 N        2.690    -0.175    24.781     7.393
    59   6 C        3.797     0.035    19.984     6.365
    60   6 C        2.765     0.203    23.684     7.970
    61   8 O        0.856    -0.349    20.692     6.099
    62   6 C        3.810    -0.083    22.077     6.688
    63   6 C        3.086     0.035    27.130     8.538
    64   7 N        2.843    -0.058    22.358     7.023
    65   6 C        3.054     0.004    27.883     8.660
    66   6 C        2.106     0.060    29.344     8.753
    67   7 N        1.978    -0.219    26.570     7.644
    68   1 H        0.980    -0.003     3.093     2.748
    69   1 H        0.980     0.001     3.024     2.717
    70   1 H        0.980    -0.000     3.052     2.730
    71   1 H        0.980     0.009     2.891     2.657
    72   1 H        0.980     0.004     2.980     2.697
    73   1 H        0.980    -0.008     3.197     2.794
    74   1 H        0.980    -0.011     3.250     2.817
    75   1 H        0.980     0.012     2.856     2.641
    76   1 H        0.980     0.020     2.721     2.578
    77   1 H        0.980     0.037     2.476     2.459
    78   1 H        0.980    -0.007     3.168     2.781
    79   1 H        0.980    -0.002     3.089     2.746
    80   1 H        0.860     0.176     1.235     1.741
    81   1 H        0.860     0.156     1.359     1.826
    82   1 H        0.927     0.070     2.083     2.257
    83   1 H        0.927     0.045     2.380     2.413
    84   1 H        0.927     0.066     2.125     2.280
    85   1 H        0.927     0.033     2.545     2.495
    86   1 H        0.926     0.036     2.496     2.471
    87   1 H        0.927     0.039     2.459     2.452
    88   1 H        0.927     0.044     2.401     2.423
    89   1 H        0.927     0.042     2.426     2.436
    90   1 H        0.927     0.046     2.369     2.407
    91   1 H        0.927     0.043     2.413     2.429
    92   1 H        0.861     0.214     1.037     1.595
    93   1 H        0.926     0.107     1.720     2.051
    94   1 H        0.929     0.089     1.885     2.147
    95   1 H        0.927     0.103     1.762     2.076
    96   1 H        0.927     0.100     1.785     2.089
    97   1 H        0.861     0.217     1.021     1.583
    98   1 H        0.861     0.241     0.919     1.502
    99   1 H        0.860     0.178     1.223     1.733
   100   1 H        0.860     0.188     1.170     1.694
   101   1 H        0.927     0.068     2.104     2.268
   102   1 H        0.929     0.080     1.975     2.198
   103   1 H        0.927     0.074     2.040     2.233
   104   1 H        0.926     0.079     1.984     2.203
   105   1 H        0.927     0.056     2.243     2.342
   106   1 H        0.927     0.083     1.951     2.184
   107   1 H        0.861     0.212     1.048     1.604
   108   1 H        0.861     0.233     0.952     1.528
   109   1 H        0.860     0.161     1.326     1.804
   110   1 H        0.860     0.169     1.280     1.772
   111   1 H        0.927     0.051     2.303     2.373
   112   1 H        0.926     0.066     2.134     2.285
   113   1 H        0.927     0.059     2.211     2.325
   114   1 H        0.927     0.058     2.220     2.330
   115   1 H        0.861     0.240     0.922     1.504
   116   1 H        0.927     0.098     1.801     2.098
   117   1 H        0.929     0.081     1.967     2.193
   118   1 H        0.927     0.067     2.117     2.275
   119   1 H        0.927     0.088     1.902     2.156
   120   1 H        0.927     0.093     1.848     2.126
   121   1 H        0.927     0.078     2.001     2.212
   122   1 H        0.860     0.169     1.281     1.773
   123   1 H        0.860     0.176     1.239     1.744
   124   1 H        0.927     0.068     2.111     2.272
   125   1 H        0.927     0.089     1.889     2.149
   126   1 H        0.927     0.086     1.922     2.168
   127   1 H        0.929     0.066     2.134     2.284
   128   1 H        0.861     0.229     0.968     1.541
   129   1 H        0.927     0.097     1.811     2.104
   130   1 H        0.927     0.062     2.171     2.304
   131   1 H        0.927     0.078     1.998     2.210
   132   1 H        0.926     0.032     2.556     2.500
   133   1 H        0.927     0.034     2.527     2.486
   134   1 H        0.927     0.041     2.436     2.441
   135   1 H        0.927     0.044     2.397     2.421
   136   1 H        0.927     0.039     2.455     2.450
   137   1 H        0.926     0.046     2.366     2.405
   138   1 H        0.927     0.047     2.357     2.401
   139   1 H        0.861     0.255     0.865     1.457
   140   1 H        0.927     0.075     2.031     2.229
   141   1 H        0.929     0.080     1.981     2.201
   142   1 H        0.927     0.089     1.884     2.146
   143   1 H        0.927     0.105     1.739     2.062
   144   1 H        0.929     0.070     2.082     2.256
   145   1 H        0.980     0.002     3.014     2.713
   146   1 H        0.980    -0.002     3.077     2.741
   147   1 H        0.980     0.001     3.024     2.717
   148   1 H        0.980    -0.009     3.203     2.796
   149   1 H        0.980    -0.003     3.105     2.754
   150   1 H        0.980     0.008     2.911     2.666
   151   1 H        0.980     0.011     2.861     2.643
   152   1 H        0.980    -0.013     3.283     2.832
   153   1 H        0.980    -0.018     3.371     2.869
   154   1 H        0.980    -0.014     3.302     2.840
   155   1 H        0.980     0.009     2.894     2.658
   156   1 H        0.980     0.020     2.722     2.578
   157   1 H        0.858     0.203     1.091     1.637

 Mol. C6AA /au·bohr⁶  :     206420.189768
 Mol. C8AA /au·bohr⁸  :    4392016.016679
 Mol. α(0) /au        :        684.227519


Wiberg/Mayer (AO) data.
largest (>0.10) Wiberg bond orders for each atom

 ---------------------------------------------------------------------------
     #   Z sym  total        # sym  WBO       # sym  WBO       # sym  WBO
 ---------------------------------------------------------------------------
     1   7 N    2.979 --     2 C    1.015    81 H    0.951    80 H    0.951
     2   6 C    3.976 --     1 N    1.015     5 C    0.964    82 H    0.952
                             3 C    0.943
     3   6 C    3.943 --     4 O    1.633     9 N    1.295     2 C    0.943
     4   8 O    1.939 --     3 C    1.633     9 N    0.190
     5   6 C    3.978 --     6 C    0.985    83 H    0.976    84 H    0.967
                             2 C    0.964
     6   6 C    3.991 --     8 C    1.010     7 C    1.005     5 C    0.985
                            85 H    0.974
     7   6 C    3.995 --     6 C    1.005    86 H    0.988    88 H    0.986
                            87 H    0.982
     8   6 C    3.994 --     6 C    1.010    91 H    0.986    90 H    0.985
                            89 H    0.984
     9   7 N    3.464 --     3 C    1.295    10 C    0.977    92 H    0.917
                             4 O    0.190
    10   6 C    3.965 --     9 N    0.977    13 C    0.970    11 C    0.970
                            93 H    0.924
    11   6 C    3.901 --    12 O    1.912    10 C    0.970    94 H    0.947
    12   8 O    2.057 --    11 C    1.912
    13   6 C    3.983 --    10 C    0.970    14 C    0.956    96 H    0.956
                            95 H    0.950
    14   6 C    3.949 --    15 O    1.652    16 N    1.313    13 C    0.956
    15   8 O    1.955 --    14 C    1.652    16 N    0.201
    16   7 N    3.401 --    14 C    1.313    98 H    0.922    97 H    0.912
                            15 O    0.201
    17   7 N    2.960 --    18 C    1.011    99 H    0.953   100 H    0.948
    18   6 C    3.969 --    17 N    1.011    19 C    0.988    21 C    0.956
                           101 H    0.937
    19   6 C    3.891 --    20 O    1.888    18 C    0.988   102 H    0.948
    20   8 O    2.050 --    19 C    1.888
    21   6 C    3.981 --    22 C    0.991   103 H    0.972   104 H    0.968
                            18 C    0.956
    22   6 C    3.979 --    21 C    0.991   105 H    0.976   106 H    0.961
                            23 C    0.953
    23   6 C    3.940 --    24 O    1.632    25 N    1.332    22 C    0.953
    24   8 O    1.924 --    23 C    1.632    25 N    0.199
    25   7 N    3.424 --    23 C    1.332   107 H    0.927   108 H    0.921
                            24 O    0.199
    26   7 N    2.979 --    27 C    1.009   109 H    0.960   110 H    0.955
    27   6 C    3.975 --    26 N    1.009    30 C    0.989    28 C    0.945
                           111 H    0.925
    28   6 C    3.942 --    29 O    1.571    31 N    1.342    27 C    0.945
    29   8 O    1.960 --    28 C    1.571    31 N    0.192
    30   6 C    3.985 --    27 C    0.989   112 H    0.981   113 H    0.980
                           114 H    0.980
    31   7 N    3.501 --    28 C    1.342    32 C    0.974   115 H    0.900
                            29 O    0.192
    32   6 C    3.954 --    31 N    0.974    35 C    0.966    33 C    0.966
                           116 H    0.945
    33   6 C    3.893 --    34 O    1.914    32 C    0.966   117 H    0.947
    34   8 O    2.052 --    33 C    1.914
    35   6 C    3.978 --    36 C    1.002   118 H    0.975   119 H    0.968
                            32 C    0.966
    36   6 C    3.821 --    35 C    1.002   121 H    0.968   120 H    0.945
                            37 C    0.847
    37   6 C    3.898 --    38 O    1.515    39 O    1.514    36 C    0.847
    38   8 O    1.785 --    37 C    1.515    39 O    0.232
    39   8 O    1.783 --    37 C    1.514    38 O    0.232
    40   7 N    2.987 --    41 C    1.011   122 H    0.956   123 H    0.949
    41   6 C    3.954 --    40 N    1.011    44 C    0.964   124 H    0.941
                            42 C    0.938
    42   6 C    3.941 --    43 O    1.581    50 N    1.336    41 C    0.938
    43   8 O    1.912 --    42 C    1.581    50 N    0.189
    44   6 C    3.988 --    45 C    1.018    41 C    0.964   125 H    0.954
                           126 H    0.949
    45   6 C    3.901 --    47 C    1.501    46 N    1.180    44 C    1.018
                            48 C    0.124
    46   7 N    3.024 --    48 C    1.629    45 C    1.180    49 N    0.118
    47   6 C    3.901 --    45 C    1.501    49 N    1.214   127 H    0.969
                            48 C    0.128
    48   6 C    3.566 --    46 N    1.629    49 N    1.619    47 C    0.128
                            45 C    0.124
    49   7 N    3.025 --    48 C    1.619    47 C    1.214    46 N    0.118
    50   7 N    3.481 --    42 C    1.336    51 C    0.971   128 H    0.896
                            43 O    0.189
    51   6 C    3.951 --    54 C    0.971    50 N    0.971   129 H    0.942
                            52 C    0.933
    52   6 C    3.950 --    53 O    1.621    58 N    1.322    51 C    0.933
    53   8 O    1.944 --    52 C    1.621    58 N    0.201
    54   6 C    3.979 --    55 C    0.989   130 H    0.973    51 C    0.971
                           131 H    0.943
    55   6 C    3.992 --    57 C    1.007    56 C    1.006    54 C    0.989
                           132 H    0.972
    56   6 C    3.995 --    55 C    1.006   133 H    0.987   135 H    0.986
                           134 H    0.982
    57   6 C    3.993 --    55 C    1.007   138 H    0.985   137 H    0.985
                           136 H    0.978
    58   7 N    3.473 --    52 C    1.322    59 C    0.974   139 H    0.865
                            53 O    0.201
    59   6 C    3.972 --    58 N    0.974    62 C    0.970    60 C    0.968
                           140 H    0.953
    60   6 C    3.899 --    61 O    1.913    59 C    0.968   141 H    0.949
    61   8 O    2.050 --    60 C    1.913
    62   6 C    3.983 --    63 C    1.012    59 C    0.970   142 H    0.954
                           143 H    0.951
    63   6 C    3.903 --    65 C    1.558    64 N    1.156    62 C    1.012
                            66 C    0.112
    64   7 N    3.557 --    66 C    1.317    63 C    1.156   157 H    0.918
    65   6 C    3.893 --    63 C    1.558    67 N    1.213   144 H    0.963
    66   6 C    3.222 --    67 N    1.683    64 N    1.317    63 C    0.112
    67   7 N    3.064 --    66 C    1.683    65 C    1.213
    68   1 H    1.000 --   145 H    0.998
    69   1 H    1.000 --   146 H    0.996
    70   1 H    1.000 --   147 H    0.980
    71   1 H    1.000 --   148 H    0.973
    72   1 H    1.000 --   149 H    0.966
    73   1 H    1.000 --   150 H    0.981
    74   1 H    1.000 --   151 H    0.977
    75   1 H    1.000 --   152 H    0.986
    76   1 H    0.996 --   153 H    0.968
    77   1 H    0.982 --   154 H    0.925
    78   1 H    0.997 --   155 H    0.989
    79   1 H    0.986 --   156 H    0.953
    80   1 H    0.968 --     1 N    0.951
    81   1 H    0.975 --     1 N    0.951
    82   1 H    0.994 --     2 C    0.952
    83   1 H    0.996 --     5 C    0.976
    84   1 H    0.995 --     5 C    0.967
    85   1 H    0.998 --     6 C    0.974
    86   1 H    0.998 --     7 C    0.988
    87   1 H    0.998 --     7 C    0.982
    88   1 H    0.998 --     7 C    0.986
    89   1 H    0.998 --     8 C    0.984
    90   1 H    0.997 --     8 C    0.985
    91   1 H    0.998 --     8 C    0.986
    92   1 H    0.954 --     9 N    0.917
    93   1 H    0.988 --    10 C    0.924
    94   1 H    0.990 --    11 C    0.947
    95   1 H    0.989 --    13 C    0.950
    96   1 H    0.990 --    13 C    0.956
    97   1 H    0.953 --    16 N    0.912
    98   1 H    0.942 --    16 N    0.922
    99   1 H    0.966 --    17 N    0.953
   100   1 H    0.963 --    17 N    0.948
   101   1 H    0.973 --    18 C    0.937
   102   1 H    0.992 --    19 C    0.948
   103   1 H    0.989 --    21 C    0.972
   104   1 H    0.993 --    21 C    0.968
   105   1 H    0.996 --    22 C    0.976
   106   1 H    0.993 --    22 C    0.961
   107   1 H    0.955 --    25 N    0.927
   108   1 H    0.945 --    25 N    0.921
   109   1 H    0.973 --    26 N    0.960
   110   1 H    0.970 --    26 N    0.955
   111   1 H    0.987 --    27 C    0.925
   112   1 H    0.994 --    30 C    0.981
   113   1 H    0.996 --    30 C    0.980
   114   1 H    0.997 --    30 C    0.980
   115   1 H    0.942 --    31 N    0.900
   116   1 H    0.990 --    32 C    0.945
   117   1 H    0.992 --    33 C    0.947
   118   1 H    0.995 --    35 C    0.975
   119   1 H    0.991 --    35 C    0.968
   120   1 H    0.987 --    36 C    0.945
   121   1 H    0.992 --    36 C    0.968
   122   1 H    0.971 --    40 N    0.956
   123   1 H    0.964 --    40 N    0.949
   124   1 H    0.980 --    41 C    0.941
   125   1 H    0.991 --    44 C    0.954
   126   1 H    0.988 --    44 C    0.949
   127   1 H    0.996 --    47 C    0.969
   128   1 H    0.947 --    50 N    0.896
   129   1 H    0.989 --    51 C    0.942
   130   1 H    0.995 --    54 C    0.973
   131   1 H    0.992 --    54 C    0.943
   132   1 H    0.997 --    55 C    0.972
   133   1 H    0.999 --    56 C    0.987
   134   1 H    0.998 --    56 C    0.982
   135   1 H    0.998 --    56 C    0.986
   136   1 H    0.998 --    57 C    0.978
   137   1 H    0.997 --    57 C    0.985
   138   1 H    0.998 --    57 C    0.985
   139   1 H    0.935 --    58 N    0.865
   140   1 H    0.994 --    59 C    0.953
   141   1 H    0.993 --    60 C    0.949
   142   1 H    0.991 --    62 C    0.954
   143   1 H    0.985 --    62 C    0.951
   144   1 H    0.994 --    65 C    0.963
   145   1 H    1.000 --    68 H    0.998
   146   1 H    1.000 --    69 H    0.996
   147   1 H    1.000 --    70 H    0.980
   148   1 H    1.000 --    71 H    0.973
   149   1 H    1.000 --    72 H    0.966
   150   1 H    1.000 --    73 H    0.981
   151   1 H    1.000 --    74 H    0.977
   152   1 H    1.000 --    75 H    0.986
   153   1 H    0.992 --    76 H    0.968
   154   1 H    0.978 --    77 H    0.925
   155   1 H    0.998 --    78 H    0.989
   156   1 H    0.990 --    79 H    0.953
   157   1 H    0.959 --    64 N    0.918
 ---------------------------------------------------------------------------

Topologies differ in total number of bonds
Writing topology from bond orders to xtbtopo.mol

molecular dipole:
                 x           y           z       tot (Debye)
 q only:        0.145      -6.997       1.671
   full:        0.704      -7.497       0.559      19.193
molecular quadrupole (traceless):
                xx          xy          yy          xz          yz          zz
 q only:      791.648     413.701   -1479.008     -14.245     279.653     687.359
  q+dip:      806.357     543.979   -1566.468      34.317      90.586     760.111
   full:      803.724     540.168   -1563.956      31.952      90.335     760.233


           -------------------------------------------------
          | TOTAL ENERGY             -222.085504854338 Eh   |
          | GRADIENT NORM               1.013938525688 Eh/α |
          | HOMO-LUMO GAP               0.038257481723 eV   |
           -------------------------------------------------
########################################################################
[WARNING] Runtime exception occurred
-2- restart_readRestart: Dimension missmatch in restart file.
-1- restart_readRestart: Number of electron missmatch in restart file.
########################################################################

------------------------------------------------------------------------
 * finished run on 2025/05/05 at 16:54:18.420     
------------------------------------------------------------------------
 total:
 * wall-time:     0 d,  0 h,  0 min,  1.483 sec
 *  cpu-time:     0 d,  0 h,  0 min, 43.782 sec
 * ratio c/w:    29.524 speedup
 SCF:
 * wall-time:     0 d,  0 h,  0 min,  1.471 sec
 *  cpu-time:     0 d,  0 h,  0 min, 43.501 sec
 * ratio c/w:    29.572 speedup

