      -----------------------------------------------------------      
     |                   =====================                   |     
     |                           x T B                           |     
     |                   =====================                   |     
     |                         S. Grimme                         |     
     |          Mulliken Center for Theoretical Chemistry        |     
     |                    University of Bonn                     |     
      -----------------------------------------------------------      

   * xtb version 6.7.1 (edcfbbe) compiled by 'conda@afd1a870197c' on 2025-04-11

   xtb is free software: you can redistribute it and/or modify it under
   the terms of the GNU Lesser General Public License as published by
   the Free Software Foundation, either version 3 of the License, or
   (at your option) any later version.
   
   xtb is distributed in the hope that it will be useful,
   but WITHOUT ANY WARRANTY; without even the implied warranty of
   MERCHANTABILITY or FITNESS FOR A PARTICULAR PURPOSE.  See the
   GNU Lesser General Public License for more details.
   
   Cite this work as:
   * C. Bannwarth, E. Caldeweyher, S. Ehlert, A. Hansen, P. Pracht,
     J. Seibert, S. Spicher, S. Grimme, WIREs Comput. Mol. Sci., 2020, 11,
     e01493. DOI: 10.1002/wcms.1493
   
   for GFN2-xTB:
   * C. Bannwarth, S. Ehlert and S. Grimme., J. Chem. Theory Comput., 2019,
     15, 1652-1671. DOI: 10.1021/acs.jctc.8b01176
   for GFN1-xTB:
   * S. Grimme, C. Bannwarth, P. Shushkov, J. Chem. Theory Comput., 2017,
     13, 1989-2009. DOI: 10.1021/acs.jctc.7b00118
   for GFN0-xTB:
   * P. Pracht, E. Caldeweyher, S. Ehlert, S. Grimme, ChemRxiv, 2019, preprint.
     DOI: 10.26434/chemrxiv.8326202.v1
   for GFN-FF:
   * S. Spicher and S. Grimme, Angew. Chem. Int. Ed., 2020, 59, 15665-15673.
     DOI: 10.1002/anie.202004239
   
   for ALPB and GBSA implicit solvation:
   * S. Ehlert, M. Stahn, S. Spicher, S. Grimme, J. Chem. Theory Comput.,
     2021, 17, 4250-4261. DOI: 10.1021/acs.jctc.1c00471
   
   for ddCOSMO and CPCM-X implicit solvation:
   * M. Stahn, S. Ehlert, S. Grimme, J. Phys. Chem. A,
     2023, XX, XXXX-XXXX. DOI: 10.1021/acs.jpca.3c04382
   
   for DFT-D4:
   * E. Caldeweyher, C. Bannwarth and S. Grimme, J. Chem. Phys., 2017,
     147, 034112. DOI: 10.1063/1.4993215
   * E. Caldeweyher, S. Ehlert, A. Hansen, H. Neugebauer, S. Spicher,
     C. Bannwarth and S. Grimme, J. Chem. Phys., 2019, 150, 154122.
     DOI: 10.1063/1.5090222
   * E. Caldeweyher, J.-M. Mewes, S. Ehlert and S. Grimme, Phys. Chem. Chem. Phys.
     2020, 22, 8499-8512. DOI: 10.1039/D0CP00502A
   
   for sTDA-xTB:
   * S. Grimme and C. Bannwarth, J. Chem. Phys., 2016, 145, 054103.
     DOI: 10.1063/1.4959605
   
   in the mass-spec context:
   * V. Asgeirsson, C. Bauer and S. Grimme, Chem. Sci., 2017, 8, 4879.
     DOI: 10.1039/c7sc00601b
   * J. Koopman and S. Grimme, ACS Omega 2019, 4, 12, 15120-15133.
     DOI: 10.1021/acsomega.9b02011
   
   for metadynamics refer to:
   * S. Grimme, J. Chem. Theory Comput., 2019, 155, 2847-2862
     DOI: 10.1021/acs.jctc.9b00143
   
   for SPH calculations refer to:
   * S. Spicher and S. Grimme, J. Chem. Theory Comput., 2021, 17, 1701-1714
     DOI: 10.1021/acs.jctc.0c01306
   
   for ONIOM refer to:
   * C. Plett, A. Katbashev, S. Ehlert, S. Grimme, M. Bursch,
     Phys. Chem. Chem. Phys., 2023, 25, 17860-17868. DOI: 10.1039/D3CP02178E
   
   for DIPRO refer to:
   * J. Kohn, N. Gildemeister, S. Grimme, D. Fazzi, A. Hansen,
     J. Chem. Phys., 2023, just accepted.
   
   for PTB refer to:
   * S. Grimme, M. Mueller, A. Hansen, J. Chem. Phys., 2023, 158, 124111.
     DOI: 10.1063/5.0137838
   
   with help from (in alphabetical order)
   P. Atkinson, C. Bannwarth, F. Bohle, G. Brandenburg, E. Caldeweyher
   M. Checinski, S. Dohm, S. Ehlert, S. Ehrlich, I. Gerasimov, C. Hölzer
   A. Katbashev, J. Kohn, J. Koopman, C. Lavigne, S. Lehtola, F. März, M. Müller,
   F. Musil, H. Neugebauer, J. Pisarek, C. Plett, P. Pracht, F. Pultar,
   J. Seibert, P. Shushkov, S. Spicher, M. Stahn, M. Steiner, T. Strunk,
   J. Stückrath, T. Rose, and J. Unsleber
   
 * started run on 2025/05/05 at 16:54:18.436     
   ID    Z sym.   atoms
    1    7 N      1, 9, 16, 17, 25, 26, 31, 40, 46, 49, 50, 58, 64, 67
    2    6 C      2, 3, 5-8, 10, 11, 13, 14, 18, 19, 21-23, 27, 28, 30, 32,
                  33, 35-37, 41, 42, 44, 45, 47, 48, 51, 52, 54-57, 59, 60,
                  62, 63, 65, 66
    3    8 O      4, 12, 15, 20, 24, 29, 34, 38, 39, 43, 53, 61
    4    1 H      68-157

           -------------------------------------------------
          |                Calculation Setup                |
           -------------------------------------------------

          program call               : xtb /tmp/tmp1wgb3vif/HIE/input.xyz --alpb ether --chrg 0 --input /tmp/tmp1wgb3vif/HIE/constraints.inp --gfn 2
          hostname                   : fedora
          coordinate file            : /tmp/tmp1wgb3vif/HIE/input.xyz
          omp threads                :                    32


molecular fragmentation (1/2 indicates fragments):
111111111111111122222222222222222222222222222222222222222222222222222222
222222211111111111111111112222222222222222222222222222222222222222222222
2222222222222
# atoms in fragment 1/2:    35   122
 fragment masses (1/2) :      229.28      741.96
CMA distance (Bohr)    :  14.023
constraining FC (au)   :  0.0500
########################################################################
[WARNING] Please study the warnings concerning your input carefully
-1- readin_getIntValue: could not parse 'S'
########################################################################

           -------------------------------------------------
          |                 G F N 2 - x T B                 |
           -------------------------------------------------

        Reference                      10.1021/acs.jctc.8b01176
      * Hamiltonian:
        H0-scaling (s, p, d)           1.850000    2.230000    2.230000
        zeta-weighting                 0.500000
      * Dispersion:
        s8                             2.700000
        a1                             0.520000
        a2                             5.000000
        s9                             5.000000
      * Repulsion:
        kExp                           1.500000    1.000000
        rExp                           1.000000
      * Coulomb:
        alpha                          2.000000
        third order                    shell-resolved
        anisotropic                    true
        a3                             3.000000
        a5                             4.000000
        cn-shift                       1.200000
        cn-exp                         4.000000
        max-rad                        5.000000

      * Solvation model:               ALPB
        Solvent                        ether
        Parameter file                 internal GFN2-xTB/ALPB
        Dielectric constant                4.3300E+00
        Reference state                gsolv [1 M gas/solution]
        Free energy shift                  4.9534E-03 Eh       3.1083E+00 kcal/mol
        Temperature                        2.9815E+02 K
        Density                            7.1300E-01 kg/L
        Solvent mass                       7.4120E+01 g/mol
        Interaction kernel             P16
        Born radius scaling (c1)           1.5847E+00
        Born radii integrator          GBOBC
        Born offset                        0.0000E+00 a0       0.0000E+00 AA
        H-bond correction              true
        Ion screening                  false
        Surface tension                    1.0000E-05 Eh       1.5569E+01 dyn/cm
        Grid points                               230 per atom

          ...................................................
          :                      SETUP                      :
          :.................................................:
          :  # basis functions                 358          :
          :  # atomic orbitals                 358          :
          :  # shells                          224          :
          :  # electrons                       396          :
          :  max. iterations                   250          :
          :  Hamiltonian                  GFN2-xTB          :
          :  restarted?                      false          :
          :  GBSA solvation                   true          :
          :  PC potential                    false          :
          :  electronic temp.          300.0000000     K    :
          :  accuracy                    1.0000000          :
          :  -> integral cutoff          0.2500000E+02      :
          :  -> integral neglect         0.1000000E-07      :
          :  -> SCF convergence          0.1000000E-05 Eh   :
          :  -> wf. convergence          0.1000000E-03 e    :
          :  Broyden damping             0.4000000          :
          :  net charge                          0          :
          :  unpaired electrons                  0          :
          ...................................................

 iter      E             dE          RMSdq      gap      omega  full diag
   1   -223.4836827 -0.223484E+03  0.477E+00    0.10       0.0  T
   2   -221.2744645  0.220922E+01  0.442E+00    0.21       1.0  T
   3   -224.1339451 -0.285948E+01  0.306E+00    0.29       1.0  T
   4   -224.6142455 -0.480300E+00  0.238E+00    0.08       1.0  T
   5   -224.8328603 -0.218615E+00  0.219E+00    0.22       1.0  T
   6   -224.0907401  0.742120E+00  0.252E+00    0.22       1.0  T
   7   -225.3891098 -0.129837E+01  0.159E+00    0.11       1.0  T
   8   -225.5565339 -0.167424E+00  0.141E+00    0.18       1.0  T
   9   -225.1227736  0.433760E+00  0.158E+00    0.29       1.0  T
  10   -224.9171538  0.205620E+00  0.183E+00    0.11       1.0  T
  11   -225.6115581 -0.694404E+00  0.118E+00    0.14       1.0  T
  12   -224.9242819  0.687276E+00  0.184E+00    0.11       1.0  T
  13   -225.6266013 -0.702319E+00  0.103E+00    0.10       1.0  T
  14   -225.6695630 -0.429616E-01  0.900E-01    0.08       1.0  T
  15   -225.6318022  0.377608E-01  0.887E-01    0.05       1.0  T
  16   -225.6526847 -0.208826E-01  0.876E-01    0.05       1.0  T
  17   -225.4624174  0.190267E+00  0.113E+00    0.04       1.0  T
  18   -225.3994515  0.629659E-01  0.133E+00    0.13       1.0  T
  19   -225.7513004 -0.351849E+00  0.653E-01    0.01       1.0  T
  20   -225.7742145 -0.229141E-01  0.587E-01    0.06       1.0  T
  21   -225.6567697  0.117445E+00  0.850E-01    0.03       1.0  T
  22   -225.7239467 -0.671770E-01  0.681E-01    0.01       1.0  T
  23   -225.6565918  0.673549E-01  0.817E-01    0.05       1.0  T
  24   -225.7467469 -0.901551E-01  0.536E-01    0.01       1.0  T
  25   -225.7982080 -0.514611E-01  0.372E-01    0.06       1.0  T
  26   -225.7818044  0.164037E-01  0.440E-01    0.09       1.0  T
  27   -225.8030288 -0.212244E-01  0.308E-01    0.03       1.0  T
  28   -225.7986955  0.433327E-02  0.319E-01    0.02       1.0  T
  29   -225.8048557 -0.616015E-02  0.298E-01    0.06       1.0  T
  30   -225.8129988 -0.814316E-02  0.231E-01    0.05       1.0  T
  31   -225.8144810 -0.148214E-02  0.207E-01    0.05       1.0  T
  32   -225.8158632 -0.138228E-02  0.206E-01    0.06       1.0  T
  33   -225.8187744 -0.291117E-02  0.171E-01    0.05       1.0  T
  34   -225.8212177 -0.244331E-02  0.136E-01    0.05       1.0  T
  35   -225.8233925 -0.217482E-02  0.931E-02    0.05       1.0  T
  36   -225.8248923 -0.149980E-02  0.473E-02    0.04       1.0  T
  37   -225.8249101 -0.177710E-04  0.455E-02    0.04       1.0  T
  38   -225.8251098 -0.199727E-03  0.321E-02    0.05       1.0  T
  39   -225.8251918 -0.819509E-04  0.253E-02    0.04       1.0  T
  40   -225.8252820 -0.901782E-04  0.176E-02    0.04       1.0  T
  41   -225.8253372 -0.552435E-04  0.979E-03    0.04       1.0  T
  42   -225.8253519 -0.147007E-04  0.633E-03    0.04       1.3  T
  43   -225.8253624 -0.104708E-04  0.139E-03    0.04       5.7  T
  44   -225.8253617  0.652566E-06  0.195E-03    0.04       4.1  T
  45   -225.8253628 -0.106964E-05  0.523E-04    0.04      15.3  T
  46   -225.8253628  0.767679E-08  0.556E-04    0.04      14.4  T
  47   -225.8253629 -0.505521E-07  0.318E-04    0.04      25.1  T

   *** convergence criteria satisfied after 47 iterations ***

         #    Occupation            Energy/Eh            Energy/eV
      -------------------------------------------------------------
         1        2.0000           -0.7396380             -20.1266
       ...           ...                  ...                  ...
       192        1.9863           -0.3916502             -10.6573
       193        1.9597           -0.3906143             -10.6292
       194        1.9383           -0.3901993             -10.6179
       195        1.9261           -0.3900219             -10.6130
       196        1.8887           -0.3896145             -10.6019
       197        1.6874           -0.3885263             -10.5723
       198        1.5541           -0.3881108             -10.5610 (HOMO)
       199        0.8123           -0.3865637             -10.5189 (LUMO)
       200        0.2474           -0.3850645             -10.4781
       201                         -0.3106847              -8.4542
       202                         -0.3009330              -8.1888
       203                         -0.2963904              -8.0652
       ...                                ...                  ...
       358                          0.8698361              23.6694
      -------------------------------------------------------------
                  HL-Gap            0.0015471 Eh            0.0421 eV
             Fermi-level           -0.3869246 Eh          -10.5288 eV

 SCC (total)                   0 d,  0 h,  0 min,  1.109 sec
 SCC setup                      ...        0 min,  0.002 sec (  0.154%)
 Dispersion                     ...        0 min,  0.004 sec (  0.329%)
 classical contributions        ...        0 min,  0.000 sec (  0.020%)
 integral evaluation            ...        0 min,  0.009 sec (  0.816%)
 iterations                     ...        0 min,  1.072 sec ( 96.638%)
 molecular gradient             ...        0 min,  0.021 sec (  1.938%)
 printout                       ...        0 min,  0.001 sec (  0.104%)

         :::::::::::::::::::::::::::::::::::::::::::::::::::::
         ::                     SUMMARY                     ::
         :::::::::::::::::::::::::::::::::::::::::::::::::::::
         :: total energy            -222.084343966364 Eh    ::
         :: total w/o Gsasa/hb      -222.013402460565 Eh    ::
         :: gradient norm              1.013551108086 Eh/a0 ::
         :: HOMO-LUMO gap              0.042098132737 eV    ::
         ::.................................................::
         :: SCC energy              -225.815233141566 Eh    ::
         :: -> isotropic ES            0.562801006982 Eh    ::
         :: -> anisotropic ES          0.049911074524 Eh    ::
         :: -> anisotropic XC          0.157486994001 Eh    ::
         :: -> dispersion             -0.161983370876 Eh    ::
         :: -> Gsolv                  -0.145930494117 Eh    ::
         ::    -> Gelec               -0.074988988317 Eh    ::
         ::    -> Gsasa               -0.065229742232 Eh    ::
         ::    -> Ghb                 -0.010665201145 Eh    ::
         ::    -> Gshift               0.004953437577 Eh    ::
         :: repulsion energy           3.730889175202 Eh    ::
         :: add. restraining           0.000000000000 Eh    ::
         :: total charge               0.000000000741 e     ::
         :::::::::::::::::::::::::::::::::::::::::::::::::::::

           -------------------------------------------------
          |                Property Printout                |
           -------------------------------------------------

    * Orbital Energies and Occupations

         #    Occupation            Energy/Eh            Energy/eV
      -------------------------------------------------------------
         1        2.0000           -0.7396380             -20.1266
       ...           ...                  ...                  ...
       186        2.0000           -0.4064679             -11.0606
       187        2.0000           -0.4045835             -11.0093
       188        2.0000           -0.3988477             -10.8532
       189        2.0000           -0.3971412             -10.8068
       190        2.0000           -0.3969931             -10.8027
       191        1.9999           -0.3960413             -10.7768
       192        1.9863           -0.3916502             -10.6573
       193        1.9597           -0.3906143             -10.6292
       194        1.9383           -0.3901993             -10.6179
       195        1.9261           -0.3900219             -10.6130
       196        1.8887           -0.3896145             -10.6019
       197        1.6874           -0.3885263             -10.5723
       198        1.5541           -0.3881108             -10.5610 (HOMO)
       199        0.8123           -0.3865637             -10.5189 (LUMO)
       200        0.2474           -0.3850645             -10.4781
       201                         -0.3106847              -8.4542
       202                         -0.3009330              -8.1888
       203                         -0.2963904              -8.0652
       204                         -0.2858733              -7.7790
       205                         -0.2376214              -6.4660
       206                         -0.2349073              -6.3922
       207                         -0.2287700              -6.2251
       208                         -0.2284883              -6.2175
       209                         -0.2185550              -5.9472
       ...                                ...                  ...
       358                          0.8698361              23.6694
      -------------------------------------------------------------
                  HL-Gap            0.0015471 Eh            0.0421 eV
             Fermi-level           -0.3869246 Eh          -10.5288 eV

     #   Z          covCN         q      C6AA      α(0)
     1   7 N        2.630    -0.358    29.232     8.030
     2   6 C        3.785     0.022    20.228     6.406
     3   6 C        2.754     0.263    22.559     7.778
     4   8 O        0.859    -0.489    23.534     6.504
     5   6 C        3.813    -0.090    22.206     6.707
     6   6 C        3.850    -0.018    20.866     6.497
     7   6 C        3.756    -0.116    22.783     6.806
     8   6 C        3.761    -0.120    22.845     6.814
     9   7 N        2.686    -0.171    24.696     7.381
    10   6 C        3.793     0.022    20.214     6.402
    11   6 C        2.763     0.196    23.818     7.992
    12   8 O        0.856    -0.347    20.650     6.093
    13   6 C        3.808    -0.107    22.545     6.759
    14   6 C        2.740     0.282    22.220     7.718
    15   8 O        0.858    -0.488    23.511     6.501
    16   7 N        2.637    -0.279    27.219     7.748
    17   7 N        2.628    -0.343    28.837     7.975
    18   6 C        3.782     0.034    20.020     6.374
    19   6 C        2.761     0.200    23.733     7.978
    20   8 O        0.856    -0.361    20.920     6.132
    21   6 C        3.801    -0.067    21.780     6.645
    22   6 C        3.801    -0.099    22.395     6.738
    23   6 C        2.739     0.285    22.178     7.711
    24   8 O        0.859    -0.493    23.623     6.517
    25   7 N        2.639    -0.269    26.977     7.714
    26   7 N        2.632    -0.357    29.213     8.027
    27   6 C        3.788     0.029    20.104     6.386
    28   6 C        2.756     0.264    22.546     7.775
    29   8 O        0.859    -0.496    23.688     6.525
    30   6 C        3.761    -0.123    22.906     6.823
    31   7 N        2.689    -0.153    24.316     7.324
    32   6 C        3.794     0.022    20.207     6.401
    33   6 C        2.762     0.201    23.730     7.978
    34   8 O        0.856    -0.341    20.544     6.077
    35   6 C        3.804    -0.073    21.887     6.660
    36   6 C        3.802    -0.080    22.027     6.682
    37   6 C        2.685     0.375    20.643     7.435
    38   8 O        0.856    -0.517    24.159     6.590
    39   8 O        0.856    -0.514    24.090     6.581
    40   7 N        2.628    -0.348    28.961     7.993
    41   6 C        3.789     0.033    20.038     6.375
    42   6 C        2.762     0.271    22.418     7.754
    43   8 O        0.859    -0.474    23.220     6.461
    44   6 C        3.814    -0.071    21.851     6.653
    45   6 C        3.088     0.060    26.567     8.449
    46   7 N        1.988    -0.255    27.450     7.770
    47   6 C        3.058     0.002    27.917     8.665
    48   6 C        2.109     0.161    27.001     8.396
    49   7 N        1.978    -0.242    27.128     7.724
    50   7 N        2.688    -0.152    24.294     7.320
    51   6 C        3.801     0.010    20.403     6.431
    52   6 C        2.755     0.269    22.454     7.759
    53   8 O        0.859    -0.492    23.608     6.514
    54   6 C        3.810    -0.088    22.161     6.701
    55   6 C        3.849    -0.015    20.806     6.488
    56   6 C        3.756    -0.119    22.824     6.812
    57   6 C        3.759    -0.118    22.816     6.810
    58   7 N        2.690    -0.162    24.503     7.352
    59   6 C        3.797     0.033    20.015     6.370
    60   6 C        2.765     0.204    23.669     7.968
    61   8 O        0.856    -0.354    20.785     6.112
    62   6 C        3.810    -0.076    21.942     6.668
    63   6 C        3.086     0.070    26.333     8.412
    64   7 N        1.985    -0.232    26.884     7.690
    65   6 C        3.054    -0.033    28.773     8.797
    66   6 C        2.106     0.063    29.275     8.743
    67   7 N        2.836    -0.054    22.278     7.010
    68   1 H        0.980    -0.002     3.091     2.747
    69   1 H        0.980     0.002     3.022     2.716
    70   1 H        0.980    -0.000     3.050     2.729
    71   1 H        0.980     0.010     2.889     2.656
    72   1 H        0.980     0.004     2.977     2.696
    73   1 H        0.980    -0.008     3.194     2.793
    74   1 H        0.980    -0.011     3.246     2.815
    75   1 H        0.980     0.012     2.853     2.640
    76   1 H        0.980     0.021     2.714     2.574
    77   1 H        0.980     0.039     2.454     2.448
    78   1 H        0.980    -0.005     3.141     2.770
    79   1 H        0.980     0.001     3.032     2.721
    80   1 H        0.860     0.179     1.218     1.729
    81   1 H        0.860     0.159     1.342     1.815
    82   1 H        0.927     0.072     2.067     2.248
    83   1 H        0.927     0.049     2.332     2.388
    84   1 H        0.927     0.067     2.121     2.278
    85   1 H        0.927     0.035     2.517     2.481
    86   1 H        0.926     0.037     2.495     2.470
    87   1 H        0.927     0.040     2.455     2.450
    88   1 H        0.927     0.044     2.397     2.421
    89   1 H        0.927     0.042     2.427     2.436
    90   1 H        0.927     0.046     2.367     2.406
    91   1 H        0.927     0.043     2.406     2.426
    92   1 H        0.861     0.214     1.039     1.596
    93   1 H        0.926     0.111     1.689     2.032
    94   1 H        0.929     0.089     1.892     2.151
    95   1 H        0.927     0.100     1.781     2.087
    96   1 H        0.927     0.100     1.788     2.091
    97   1 H        0.861     0.222     0.999     1.566
    98   1 H        0.861     0.241     0.917     1.500
    99   1 H        0.860     0.176     1.235     1.741
   100   1 H        0.860     0.186     1.182     1.703
   101   1 H        0.927     0.063     2.161     2.299
   102   1 H        0.929     0.080     1.982     2.201
   103   1 H        0.927     0.072     2.064     2.247
   104   1 H        0.926     0.079     1.994     2.208
   105   1 H        0.927     0.054     2.267     2.354
   106   1 H        0.927     0.082     1.955     2.186
   107   1 H        0.861     0.211     1.053     1.607
   108   1 H        0.861     0.225     0.989     1.558
   109   1 H        0.860     0.162     1.325     1.803
   110   1 H        0.860     0.169     1.280     1.772
   111   1 H        0.927     0.053     2.287     2.365
   112   1 H        0.926     0.061     2.188     2.313
   113   1 H        0.927     0.060     2.203     2.321
   114   1 H        0.927     0.061     2.192     2.315
   115   1 H        0.861     0.239     0.927     1.508
   116   1 H        0.927     0.097     1.813     2.106
   117   1 H        0.929     0.081     1.969     2.194
   118   1 H        0.927     0.066     2.129     2.282
   119   1 H        0.927     0.086     1.915     2.164
   120   1 H        0.927     0.082     1.963     2.191
   121   1 H        0.927     0.074     2.046     2.237
   122   1 H        0.860     0.170     1.271     1.766
   123   1 H        0.860     0.177     1.229     1.737
   124   1 H        0.927     0.071     2.074     2.252
   125   1 H        0.927     0.090     1.876     2.142
   126   1 H        0.927     0.087     1.911     2.162
   127   1 H        0.929     0.066     2.129     2.281
   128   1 H        0.861     0.230     0.964     1.538
   129   1 H        0.927     0.098     1.800     2.098
   130   1 H        0.927     0.068     2.105     2.269
   131   1 H        0.927     0.078     1.999     2.211
   132   1 H        0.926     0.033     2.542     2.493
   133   1 H        0.927     0.034     2.529     2.487
   134   1 H        0.927     0.041     2.433     2.439
   135   1 H        0.927     0.044     2.394     2.419
   136   1 H        0.927     0.039     2.463     2.454
   137   1 H        0.926     0.046     2.365     2.405
   138   1 H        0.927     0.047     2.353     2.399
   139   1 H        0.861     0.253     0.872     1.463
   140   1 H        0.927     0.095     1.828     2.114
   141   1 H        0.929     0.078     2.001     2.212
   142   1 H        0.927     0.088     1.902     2.157
   143   1 H        0.927     0.101     1.776     2.084
   144   1 H        0.929     0.071     2.069     2.249
   145   1 H        0.980     0.002     3.016     2.714
   146   1 H        0.980    -0.002     3.079     2.742
   147   1 H        0.980     0.001     3.026     2.718
   148   1 H        0.980    -0.009     3.205     2.797
   149   1 H        0.980    -0.003     3.108     2.755
   150   1 H        0.980     0.008     2.914     2.667
   151   1 H        0.980     0.011     2.864     2.644
   152   1 H        0.980    -0.013     3.285     2.832
   153   1 H        0.980    -0.017     3.360     2.864
   154   1 H        0.980    -0.012     3.269     2.825
   155   1 H        0.980     0.009     2.902     2.662
   156   1 H        0.980     0.021     2.711     2.573
   157   1 H        0.858     0.213     1.042     1.599

 Mol. C6AA /au·bohr⁶  :     206383.325075
 Mol. C8AA /au·bohr⁸  :    4391654.314776
 Mol. α(0) /au        :        684.152401


Wiberg/Mayer (AO) data.
largest (>0.10) Wiberg bond orders for each atom

 ---------------------------------------------------------------------------
     #   Z sym  total        # sym  WBO       # sym  WBO       # sym  WBO
 ---------------------------------------------------------------------------
     1   7 N    2.975 --     2 C    1.015    81 H    0.950    80 H    0.950
     2   6 C    3.972 --     1 N    1.015     5 C    0.962    82 H    0.951
                             3 C    0.942
     3   6 C    3.943 --     4 O    1.642     9 N    1.289     2 C    0.942
     4   8 O    1.949 --     3 C    1.642     9 N    0.190
     5   6 C    3.973 --     6 C    0.984    83 H    0.975    84 H    0.967
                             2 C    0.962
     6   6 C    3.989 --     8 C    1.010     7 C    1.004     5 C    0.984
                            85 H    0.973
     7   6 C    3.995 --     6 C    1.004    86 H    0.988    88 H    0.986
                            87 H    0.982
     8   6 C    3.994 --     6 C    1.010    91 H    0.986    90 H    0.985
                            89 H    0.984
     9   7 N    3.459 --     3 C    1.289    10 C    0.977    92 H    0.917
                             4 O    0.190
    10   6 C    3.964 --     9 N    0.977    11 C    0.973    13 C    0.969
                            93 H    0.923
    11   6 C    3.898 --    12 O    1.903    10 C    0.973    94 H    0.947
    12   8 O    2.048 --    11 C    1.903
    13   6 C    3.983 --    10 C    0.969    96 H    0.956    14 C    0.955
                            95 H    0.951
    14   6 C    3.950 --    15 O    1.648    16 N    1.319    13 C    0.955
    15   8 O    1.953 --    14 C    1.648    16 N    0.203
    16   7 N    3.407 --    14 C    1.319    98 H    0.921    97 H    0.911
                            15 O    0.203
    17   7 N    2.960 --    18 C    1.011    99 H    0.954   100 H    0.949
    18   6 C    3.973 --    17 N    1.011    19 C    0.989    21 C    0.956
                           101 H    0.941
    19   6 C    3.890 --    20 O    1.886    18 C    0.989   102 H    0.949
    20   8 O    2.047 --    19 C    1.886
    21   6 C    3.984 --    22 C    0.989   103 H    0.974   104 H    0.969
                            18 C    0.956
    22   6 C    3.991 --    21 C    0.989   105 H    0.977    23 C    0.961
                           106 H    0.961
    23   6 C    3.943 --    24 O    1.652    25 N    1.303    22 C    0.961
    24   8 O    1.947 --    23 C    1.652    25 N    0.196
    25   7 N    3.400 --    23 C    1.303   107 H    0.927   108 H    0.911
                            24 O    0.196
    26   7 N    2.978 --    27 C    1.009   109 H    0.960   110 H    0.955
    27   6 C    3.974 --    26 N    1.009    30 C    0.989    28 C    0.944
                           111 H    0.924
    28   6 C    3.943 --    29 O    1.579    31 N    1.336    27 C    0.944
    29   8 O    1.967 --    28 C    1.579    31 N    0.192
    30   6 C    3.986 --    27 C    0.989   112 H    0.982   113 H    0.980
                           114 H    0.980
    31   7 N    3.496 --    28 C    1.336    32 C    0.974   115 H    0.900
                            29 O    0.192
    32   6 C    3.955 --    31 N    0.974    35 C    0.967    33 C    0.966
                           116 H    0.946
    33   6 C    3.894 --    34 O    1.916    32 C    0.966   117 H    0.947
    34   8 O    2.053 --    33 C    1.916
    35   6 C    3.979 --    36 C    1.001   118 H    0.975   119 H    0.968
                            32 C    0.967
    36   6 C    3.838 --    35 C    1.001   121 H    0.970   120 H    0.949
                            37 C    0.856
    37   6 C    3.903 --    38 O    1.514    39 O    1.511    36 C    0.856
    38   8 O    1.783 --    37 C    1.514    39 O    0.230
    39   8 O    1.779 --    37 C    1.511    38 O    0.230
    40   7 N    2.986 --    41 C    1.012   122 H    0.955   123 H    0.948
    41   6 C    3.949 --    40 N    1.012    44 C    0.964   124 H    0.938
                            42 C    0.936
    42   6 C    3.939 --    43 O    1.579    50 N    1.338    41 C    0.936
    43   8 O    1.910 --    42 C    1.579    50 N    0.188
    44   6 C    3.987 --    45 C    1.018    41 C    0.964   125 H    0.954
                           126 H    0.949
    45   6 C    3.901 --    47 C    1.501    46 N    1.180    44 C    1.018
                            48 C    0.125
    46   7 N    3.025 --    48 C    1.630    45 C    1.180    49 N    0.118
    47   6 C    3.901 --    45 C    1.501    49 N    1.214   127 H    0.969
                            48 C    0.128
    48   6 C    3.568 --    46 N    1.630    49 N    1.620    47 C    0.128
                            45 C    0.125
    49   7 N    3.026 --    48 C    1.620    47 C    1.214    46 N    0.118
    50   7 N    3.480 --    42 C    1.338    51 C    0.971   128 H    0.895
                            43 O    0.188
    51   6 C    3.942 --    54 C    0.971    50 N    0.971   129 H    0.942
                            52 C    0.928
    52   6 C    3.947 --    53 O    1.614    58 N    1.332    51 C    0.928
    53   8 O    1.933 --    52 C    1.614    58 N    0.201
    54   6 C    3.976 --    55 C    0.989    51 C    0.971   130 H    0.971
                           131 H    0.942
    55   6 C    3.991 --    57 C    1.007    56 C    1.006    54 C    0.989
                           132 H    0.971
    56   6 C    3.995 --    55 C    1.006   133 H    0.987   135 H    0.986
                           134 H    0.982
    57   6 C    3.993 --    55 C    1.007   138 H    0.985   137 H    0.985
                           136 H    0.978
    58   7 N    3.484 --    52 C    1.332    59 C    0.974   139 H    0.867
                            53 O    0.201
    59   6 C    3.966 --    58 N    0.974    62 C    0.971    60 C    0.970
                           140 H    0.952
    60   6 C    3.897 --    61 O    1.909    59 C    0.970   141 H    0.949
    61   8 O    2.046 --    60 C    1.909
    62   6 C    3.982 --    63 C    1.012    59 C    0.971   142 H    0.954
                           143 H    0.949
    63   6 C    3.897 --    65 C    1.559    64 N    1.188    62 C    1.012
    64   7 N    3.052 --    66 C    1.683    63 C    1.188
    65   6 C    3.896 --    63 C    1.559    67 N    1.173   144 H    0.964
                            66 C    0.121
    66   6 C    3.238 --    64 N    1.683    67 N    1.326    65 C    0.121
    67   7 N    3.564 --    66 C    1.326    65 C    1.173   157 H    0.901
    68   1 H    1.000 --   145 H    0.998
    69   1 H    1.000 --   146 H    0.996
    70   1 H    1.000 --   147 H    0.980
    71   1 H    1.000 --   148 H    0.973
    72   1 H    1.000 --   149 H    0.966
    73   1 H    1.000 --   150 H    0.981
    74   1 H    1.000 --   151 H    0.977
    75   1 H    1.000 --   152 H    0.986
    76   1 H    0.995 --   153 H    0.967
    77   1 H    0.980 --   154 H    0.922
    78   1 H    0.996 --   155 H    0.988
    79   1 H    0.982 --   156 H    0.949
    80   1 H    0.966 --     1 N    0.950
    81   1 H    0.974 --     1 N    0.950
    82   1 H    0.994 --     2 C    0.951
    83   1 H    0.995 --     5 C    0.975
    84   1 H    0.995 --     5 C    0.967
    85   1 H    0.997 --     6 C    0.973
    86   1 H    0.998 --     7 C    0.988
    87   1 H    0.998 --     7 C    0.982
    88   1 H    0.998 --     7 C    0.986
    89   1 H    0.998 --     8 C    0.984
    90   1 H    0.997 --     8 C    0.985
    91   1 H    0.998 --     8 C    0.986
    92   1 H    0.954 --     9 N    0.917
    93   1 H    0.988 --    10 C    0.923
    94   1 H    0.990 --    11 C    0.947
    95   1 H    0.989 --    13 C    0.951
    96   1 H    0.990 --    13 C    0.956
    97   1 H    0.951 --    16 N    0.911
    98   1 H    0.942 --    16 N    0.921
    99   1 H    0.967 --    17 N    0.954
   100   1 H    0.964 --    17 N    0.949
   101   1 H    0.978 --    18 C    0.941
   102   1 H    0.992 --    19 C    0.949
   103   1 H    0.993 --    21 C    0.974
   104   1 H    0.994 --    21 C    0.969
   105   1 H    0.997 --    22 C    0.977
   106   1 H    0.993 --    22 C    0.961
   107   1 H    0.956 --    25 N    0.927
   108   1 H    0.949 --    25 N    0.911
   109   1 H    0.973 --    26 N    0.960
   110   1 H    0.970 --    26 N    0.955
   111   1 H    0.986 --    27 C    0.924
   112   1 H    0.995 --    30 C    0.982
   113   1 H    0.996 --    30 C    0.980
   114   1 H    0.996 --    30 C    0.980
   115   1 H    0.942 --    31 N    0.900
   116   1 H    0.990 --    32 C    0.946
   117   1 H    0.992 --    33 C    0.947
   118   1 H    0.995 --    35 C    0.975
   119   1 H    0.991 --    35 C    0.968
   120   1 H    0.990 --    36 C    0.949
   121   1 H    0.993 --    36 C    0.970
   122   1 H    0.970 --    40 N    0.955
   123   1 H    0.963 --    40 N    0.948
   124   1 H    0.978 --    41 C    0.938
   125   1 H    0.990 --    44 C    0.954
   126   1 H    0.988 --    44 C    0.949
   127   1 H    0.996 --    47 C    0.969
   128   1 H    0.947 --    50 N    0.895
   129   1 H    0.989 --    51 C    0.942
   130   1 H    0.993 --    54 C    0.971
   131   1 H    0.992 --    54 C    0.942
   132   1 H    0.997 --    55 C    0.971
   133   1 H    0.998 --    56 C    0.987
   134   1 H    0.998 --    56 C    0.982
   135   1 H    0.998 --    56 C    0.986
   136   1 H    0.998 --    57 C    0.978
   137   1 H    0.997 --    57 C    0.985
   138   1 H    0.998 --    57 C    0.985
   139   1 H    0.936 --    58 N    0.867
   140   1 H    0.989 --    59 C    0.952
   141   1 H    0.994 --    60 C    0.949
   142   1 H    0.991 --    62 C    0.954
   143   1 H    0.983 --    62 C    0.949
   144   1 H    0.995 --    65 C    0.964
   145   1 H    1.000 --    68 H    0.998
   146   1 H    1.000 --    69 H    0.996
   147   1 H    1.000 --    70 H    0.980
   148   1 H    1.000 --    71 H    0.973
   149   1 H    1.000 --    72 H    0.966
   150   1 H    1.000 --    73 H    0.981
   151   1 H    1.000 --    74 H    0.977
   152   1 H    0.999 --    75 H    0.986
   153   1 H    0.991 --    76 H    0.967
   154   1 H    0.975 --    77 H    0.922
   155   1 H    0.997 --    78 H    0.988
   156   1 H    0.987 --    79 H    0.949
   157   1 H    0.954 --    67 N    0.901
 ---------------------------------------------------------------------------

Topologies differ in total number of bonds
Writing topology from bond orders to xtbtopo.mol

molecular dipole:
                 x           y           z       tot (Debye)
 q only:        0.400      -6.814       2.095
   full:        1.054      -6.861       1.651      18.137
molecular quadrupole (traceless):
                xx          xy          yy          xz          yz          zz
 q only:      753.024     437.981   -1427.857     -55.343     347.361     674.833
  q+dip:      713.257     555.314   -1409.610     -49.346     264.523     696.353
   full:      710.641     551.550   -1406.670     -51.735     264.419     696.029


           -------------------------------------------------
          | TOTAL ENERGY             -222.084343966364 Eh   |
          | GRADIENT NORM               1.013551108086 Eh/α |
          | HOMO-LUMO GAP               0.042098132737 eV   |
           -------------------------------------------------
########################################################################
[WARNING] Runtime exception occurred
-2- restart_readRestart: Dimension missmatch in restart file.
-1- restart_readRestart: Number of electron missmatch in restart file.
########################################################################

------------------------------------------------------------------------
 * finished run on 2025/05/05 at 16:54:19.559     
------------------------------------------------------------------------
 total:
 * wall-time:     0 d,  0 h,  0 min,  1.123 sec
 *  cpu-time:     0 d,  0 h,  0 min, 32.471 sec
 * ratio c/w:    28.921 speedup
 SCF:
 * wall-time:     0 d,  0 h,  0 min,  1.110 sec
 *  cpu-time:     0 d,  0 h,  0 min, 32.170 sec
 * ratio c/w:    28.977 speedup

