      -----------------------------------------------------------      
     |                   =====================                   |     
     |                           x T B                           |     
     |                   =====================                   |     
     |                         S. Grimme                         |     
     |          Mulliken Center for Theoretical Chemistry        |     
     |                    University of Bonn                     |     
      -----------------------------------------------------------      

   * xtb version 6.7.1 (edcfbbe) compiled by 'conda@afd1a870197c' on 2025-04-11

   xtb is free software: you can redistribute it and/or modify it under
   the terms of the GNU Lesser General Public License as published by
   the Free Software Foundation, either version 3 of the License, or
   (at your option) any later version.
   
   xtb is distributed in the hope that it will be useful,
   but WITHOUT ANY WARRANTY; without even the implied warranty of
   MERCHANTABILITY or FITNESS FOR A PARTICULAR PURPOSE.  See the
   GNU Lesser General Public License for more details.
   
   Cite this work as:
   * C. Bannwarth, E. Caldeweyher, S. Ehlert, A. Hansen, P. Pracht,
     J. Seibert, S. Spicher, S. Grimme, WIREs Comput. Mol. Sci., 2020, 11,
     e01493. DOI: 10.1002/wcms.1493
   
   for GFN2-xTB:
   * C. Bannwarth, S. Ehlert and S. Grimme., J. Chem. Theory Comput., 2019,
     15, 1652-1671. DOI: 10.1021/acs.jctc.8b01176
   for GFN1-xTB:
   * S. Grimme, C. Bannwarth, P. Shushkov, J. Chem. Theory Comput., 2017,
     13, 1989-2009. DOI: 10.1021/acs.jctc.7b00118
   for GFN0-xTB:
   * P. Pracht, E. Caldeweyher, S. Ehlert, S. Grimme, ChemRxiv, 2019, preprint.
     DOI: 10.26434/chemrxiv.8326202.v1
   for GFN-FF:
   * S. Spicher and S. Grimme, Angew. Chem. Int. Ed., 2020, 59, 15665-15673.
     DOI: 10.1002/anie.202004239
   
   for ALPB and GBSA implicit solvation:
   * S. Ehlert, M. Stahn, S. Spicher, S. Grimme, J. Chem. Theory Comput.,
     2021, 17, 4250-4261. DOI: 10.1021/acs.jctc.1c00471
   
   for ddCOSMO and CPCM-X implicit solvation:
   * M. Stahn, S. Ehlert, S. Grimme, J. Phys. Chem. A,
     2023, XX, XXXX-XXXX. DOI: 10.1021/acs.jpca.3c04382
   
   for DFT-D4:
   * E. Caldeweyher, C. Bannwarth and S. Grimme, J. Chem. Phys., 2017,
     147, 034112. DOI: 10.1063/1.4993215
   * E. Caldeweyher, S. Ehlert, A. Hansen, H. Neugebauer, S. Spicher,
     C. Bannwarth and S. Grimme, J. Chem. Phys., 2019, 150, 154122.
     DOI: 10.1063/1.5090222
   * E. Caldeweyher, J.-M. Mewes, S. Ehlert and S. Grimme, Phys. Chem. Chem. Phys.
     2020, 22, 8499-8512. DOI: 10.1039/D0CP00502A
   
   for sTDA-xTB:
   * S. Grimme and C. Bannwarth, J. Chem. Phys., 2016, 145, 054103.
     DOI: 10.1063/1.4959605
   
   in the mass-spec context:
   * V. Asgeirsson, C. Bauer and S. Grimme, Chem. Sci., 2017, 8, 4879.
     DOI: 10.1039/c7sc00601b
   * J. Koopman and S. Grimme, ACS Omega 2019, 4, 12, 15120-15133.
     DOI: 10.1021/acsomega.9b02011
   
   for metadynamics refer to:
   * S. Grimme, J. Chem. Theory Comput., 2019, 155, 2847-2862
     DOI: 10.1021/acs.jctc.9b00143
   
   for SPH calculations refer to:
   * S. Spicher and S. Grimme, J. Chem. Theory Comput., 2021, 17, 1701-1714
     DOI: 10.1021/acs.jctc.0c01306
   
   for ONIOM refer to:
   * C. Plett, A. Katbashev, S. Ehlert, S. Grimme, M. Bursch,
     Phys. Chem. Chem. Phys., 2023, 25, 17860-17868. DOI: 10.1039/D3CP02178E
   
   for DIPRO refer to:
   * J. Kohn, N. Gildemeister, S. Grimme, D. Fazzi, A. Hansen,
     J. Chem. Phys., 2023, just accepted.
   
   for PTB refer to:
   * S. Grimme, M. Mueller, A. Hansen, J. Chem. Phys., 2023, 158, 124111.
     DOI: 10.1063/5.0137838
   
   with help from (in alphabetical order)
   P. Atkinson, C. Bannwarth, F. Bohle, G. Brandenburg, E. Caldeweyher
   M. Checinski, S. Dohm, S. Ehlert, S. Ehrlich, I. Gerasimov, C. Hölzer
   A. Katbashev, J. Kohn, J. Koopman, C. Lavigne, S. Lehtola, F. März, M. Müller,
   F. Musil, H. Neugebauer, J. Pisarek, C. Plett, P. Pracht, F. Pultar,
   J. Seibert, P. Shushkov, S. Spicher, M. Stahn, M. Steiner, T. Strunk,
   J. Stückrath, T. Rose, and J. Unsleber
   
 * started run on 2025/05/05 at 17:16:05.357     
   ID    Z sym.   atoms
    1    7 N      1, 9, 16, 22, 25, 26, 34, 35, 43, 51, 58, 65, 74, 82, 90
    2    6 C      2, 3, 5, 6, 8, 10, 11, 13-15, 17, 18, 20, 21, 23, 24, 27,
                  28, 30-33, 36, 37, 39, 40, 42, 44, 45, 47-50, 52, 53,
                  55-57, 59, 60, 62-64, 66, 67, 69-71, 75, 76, 78-81, 83, 84,
                  86, 87, 91, 92, 94-100
    3    8 O      4, 12, 19, 29, 38, 46, 54, 61, 68, 72, 73, 77, 85, 88, 89,
                  93, 101
    4   16 S      7, 41
    5    1 H      102-270

           -------------------------------------------------
          |                Calculation Setup                |
           -------------------------------------------------

          program call               : xtb /tmp/tmp3877e9dx/HIE/input.xyz --alpb ether --chrg -1 --input /tmp/tmp3877e9dx/HIE/constraints.inp --gfn 2
          hostname                   : fedora
          coordinate file            : /tmp/tmp3877e9dx/HIE/input.xyz
          omp threads                :                    32


molecular fragmentation (1/2 indicates fragments):
111111111111111111111111111111111111111111222222222222222222222222222222
222222222222222222222222222222222222222222222222222222221111111111111111
111111111111111111111111112222222222222222222222222222222222222222222222
222222222222222222222222222222222222222222222222221111
# atoms in fragment 1/2:    88   182
 fragment masses (1/2) :      626.84      894.45
CMA distance (Bohr)    :  10.792
constraining FC (au)   :  0.0500

           -------------------------------------------------
          |                 G F N 2 - x T B                 |
           -------------------------------------------------

        Reference                      10.1021/acs.jctc.8b01176
      * Hamiltonian:
        H0-scaling (s, p, d)           1.850000    2.230000    2.230000
        zeta-weighting                 0.500000
      * Dispersion:
        s8                             2.700000
        a1                             0.520000
        a2                             5.000000
        s9                             5.000000
      * Repulsion:
        kExp                           1.500000    1.000000
        rExp                           1.000000
      * Coulomb:
        alpha                          2.000000
        third order                    shell-resolved
        anisotropic                    true
        a3                             3.000000
        a5                             4.000000
        cn-shift                       1.200000
        cn-exp                         4.000000
        max-rad                        5.000000

      * Solvation model:               ALPB
        Solvent                        ether
        Parameter file                 internal GFN2-xTB/ALPB
        Dielectric constant                4.3300E+00
        Reference state                gsolv [1 M gas/solution]
        Free energy shift                  4.9534E-03 Eh       3.1083E+00 kcal/mol
        Temperature                        2.9815E+02 K
        Density                            7.1300E-01 kg/L
        Solvent mass                       7.4120E+01 g/mol
        Interaction kernel             P16
        Born radius scaling (c1)           1.5847E+00
        Born radii integrator          GBOBC
        Born offset                        0.0000E+00 a0       0.0000E+00 AA
        H-bond correction              true
        Ion screening                  false
        Surface tension                    1.0000E-05 Eh       1.5569E+01 dyn/cm
        Grid points                               230 per atom

          ...................................................
          :                      SETUP                      :
          :.................................................:
          :  # basis functions                 585          :
          :  # atomic orbitals                 583          :
          :  # shells                          373          :
          :  # electrons                       627          :
          :  max. iterations                   250          :
          :  Hamiltonian                  GFN2-xTB          :
          :  restarted?                      false          :
          :  GBSA solvation                   true          :
          :  PC potential                    false          :
          :  electronic temp.          300.0000000     K    :
          :  accuracy                    1.0000000          :
          :  -> integral cutoff          0.2500000E+02      :
          :  -> integral neglect         0.1000000E-07      :
          :  -> SCF convergence          0.1000000E-05 Eh   :
          :  -> wf. convergence          0.1000000E-03 e    :
          :  Broyden damping             0.4000000          :
          :  net charge                         -1          :
          :  unpaired electrons                  0          :
          ...................................................

 iter      E             dE          RMSdq      gap      omega  full diag
   1   -352.3906056 -0.352391E+03  0.422E+00    2.45       0.0  T
   2   -352.8334567 -0.442851E+00  0.250E+00    0.04       1.0  T
   3   -353.0257802 -0.192323E+00  0.190E+00    1.97       1.0  T
   4   -353.6000796 -0.574299E+00  0.791E-01    1.63       1.0  T
   5   -353.4541362  0.145943E+00  0.726E-01    1.08       1.0  T
   6   -353.6348608 -0.180725E+00  0.266E-01    0.97       1.0  T
   7   -353.5147722  0.120089E+00  0.537E-01    0.95       1.0  T
   8   -353.6364555 -0.121683E+00  0.178E-01    0.89       1.0  T
   9   -353.6365425 -0.869129E-04  0.158E-01    1.00       1.0  T
  10   -353.6449461 -0.840361E-02  0.705E-02    0.97       1.0  T
  11   -353.6462753 -0.132925E-02  0.343E-02    1.00       1.0  T
  12   -353.6454072  0.868101E-03  0.516E-02    1.03       1.0  T
  13   -353.6466174 -0.121017E-02  0.773E-03    1.01       1.0  T
  14   -353.6466055  0.118411E-04  0.852E-03    1.02       1.0  T
  15   -353.6466221 -0.165863E-04  0.565E-03    1.02       1.1  T
  16   -353.6466348 -0.126778E-04  0.186E-03    1.02       3.3  T
  17   -353.6466362 -0.140145E-05  0.316E-04    1.02      19.3  T
  18   -353.6466362 -0.142186E-07  0.212E-04    1.02      28.7  T
  19   -353.6466362 -0.105894E-07  0.139E-04    1.02      43.8  T

   *** convergence criteria satisfied after 19 iterations ***

         #    Occupation            Energy/Eh            Energy/eV
      -------------------------------------------------------------
         1        2.0000           -0.7227210             -19.6662
       ...           ...                  ...                  ...
       308        2.0000           -0.3491290              -9.5003
       309        2.0000           -0.3430543              -9.3350
       310        2.0000           -0.3423962              -9.3171
       311        1.9997           -0.3353279              -9.1247
       312        1.9526           -0.3305241              -8.9940
       313        1.8539           -0.3293502              -8.9621
       314        1.1938           -0.3263183              -8.8796 (HOMO)
       315                         -0.2887871              -7.8583 (LUMO)
       316                         -0.2778794              -7.5615
       317                         -0.2728317              -7.4241
       318                         -0.2684036              -7.3036
       319                         -0.2674668              -7.2781
       ...                                ...                  ...
       583                          1.1447929              31.1514
      -------------------------------------------------------------
                  HL-Gap            0.0375312 Eh            1.0213 eV
             Fermi-level           -0.3176004 Eh           -8.6423 eV

 SCC (total)                   0 d,  0 h,  0 min,  1.189 sec
 SCC setup                      ...        0 min,  0.005 sec (  0.398%)
 Dispersion                     ...        0 min,  0.015 sec (  1.301%)
 classical contributions        ...        0 min,  0.001 sec (  0.045%)
 integral evaluation            ...        0 min,  0.023 sec (  1.961%)
 iterations                     ...        0 min,  1.050 sec ( 88.265%)
 molecular gradient             ...        0 min,  0.087 sec (  7.353%)
 printout                       ...        0 min,  0.008 sec (  0.674%)

         :::::::::::::::::::::::::::::::::::::::::::::::::::::
         ::                     SUMMARY                     ::
         :::::::::::::::::::::::::::::::::::::::::::::::::::::
         :: total energy            -346.966252969805 Eh    ::
         :: total w/o Gsasa/hb      -346.867661239896 Eh    ::
         :: gradient norm              1.490197436628 Eh/a0 ::
         :: HOMO-LUMO gap              1.021276428500 eV    ::
         ::.................................................::
         :: SCC energy              -353.622679783386 Eh    ::
         :: -> isotropic ES            0.958837339356 Eh    ::
         :: -> anisotropic ES          0.129344219132 Eh    ::
         :: -> anisotropic XC          0.287425129452 Eh    ::
         :: -> dispersion             -0.295487988676 Eh    ::
         :: -> Gsolv                  -0.271668362601 Eh    ::
         ::    -> Gelec               -0.173076632692 Eh    ::
         ::    -> Gsasa               -0.084838785047 Eh    ::
         ::    -> Ghb                 -0.018706382439 Eh    ::
         ::    -> Gshift               0.004953437577 Eh    ::
         :: repulsion energy           6.656426813581 Eh    ::
         :: add. restraining           0.000000000000 Eh    ::
         :: total charge              -0.999999999860 e     ::
         :::::::::::::::::::::::::::::::::::::::::::::::::::::

           -------------------------------------------------
          |                Property Printout                |
           -------------------------------------------------

    * Orbital Energies and Occupations

         #    Occupation            Energy/Eh            Energy/eV
      -------------------------------------------------------------
         1        2.0000           -0.7227210             -19.6662
       ...           ...                  ...                  ...
       302        2.0000           -0.3554623              -9.6726
       303        2.0000           -0.3554083              -9.6712
       304        2.0000           -0.3544965              -9.6463
       305        2.0000           -0.3514172              -9.5625
       306        2.0000           -0.3512761              -9.5587
       307        2.0000           -0.3492087              -9.5025
       308        2.0000           -0.3491290              -9.5003
       309        2.0000           -0.3430543              -9.3350
       310        2.0000           -0.3423962              -9.3171
       311        1.9997           -0.3353279              -9.1247
       312        1.9526           -0.3305241              -8.9940
       313        1.8539           -0.3293502              -8.9621
       314        1.1938           -0.3263183              -8.8796 (HOMO)
       315                         -0.2887871              -7.8583 (LUMO)
       316                         -0.2778794              -7.5615
       317                         -0.2728317              -7.4241
       318                         -0.2684036              -7.3036
       319                         -0.2674668              -7.2781
       320                         -0.2496175              -6.7924
       321                         -0.2240133              -6.0957
       322                         -0.2041066              -5.5540
       323                         -0.2028080              -5.5187
       324                         -0.2025980              -5.5130
       325                         -0.2007740              -5.4633
       ...                                ...                  ...
       583                          1.1447929              31.1514
      -------------------------------------------------------------
                  HL-Gap            0.0375312 Eh            1.0213 eV
             Fermi-level           -0.3176004 Eh           -8.6423 eV

     #   Z          covCN         q      C6AA      α(0)
     1   7 N        2.632    -0.367    29.470     8.062
     2   6 C        3.782     0.042    19.894     6.354
     3   6 C        2.751     0.254    22.723     7.806
     4   8 O        0.858    -0.480    23.355     6.479
     5   6 C        3.822    -0.066    21.739     6.635
     6   6 C        3.794    -0.007    20.709     6.480
     7  16 S        1.962    -0.233   151.038    20.685
     8   6 C        3.750    -0.054    21.615     6.630
     9   7 N        2.749    -0.109    23.388     7.183
    10   6 C        3.818     0.020    20.226     6.400
    11   6 C        2.756     0.278    22.297     7.732
    12   8 O        0.859    -0.515    24.108     6.583
    13   6 C        3.833    -0.061    21.646     6.619
    14   6 C        3.835    -0.064    21.692     6.626
    15   6 C        3.762    -0.005    20.707     6.487
    16   7 N        2.693    -0.150    24.243     7.313
    17   6 C        3.799     0.028    20.113     6.386
    18   6 C        2.758     0.268    22.470     7.763
    19   8 O        0.858    -0.506    23.921     6.557
    20   6 C        3.808    -0.073    21.888     6.660
    21   6 C        3.087     0.048    26.825     8.490
    22   7 N        1.990    -0.300    28.587     7.930
    23   6 C        3.062    -0.047    29.091     8.845
    24   6 C        2.111    -0.013    31.200     9.026
    25   7 N        2.838    -0.077    22.726     7.080
    26   7 N        2.686    -0.162    24.504     7.352
    27   6 C        3.796     0.018    20.270     6.411
    28   6 C        2.756     0.269    22.458     7.760
    29   8 O        0.858    -0.472    23.169     6.453
    30   6 C        3.811    -0.071    21.842     6.652
    31   6 C        3.805    -0.068    21.797     6.646
    32   6 C        3.808    -0.086    22.140     6.698
    33   6 C        3.735    -0.047    21.498     6.617
    34   7 N        3.487    -0.161    24.464     7.346
    35   7 N        2.688    -0.172    24.716     7.384
    36   6 C        3.793     0.027    20.129     6.389
    37   6 C        2.762     0.196    23.821     7.993
    38   8 O        0.856    -0.340    20.523     6.074
    39   6 C        3.830    -0.063    21.679     6.625
    40   6 C        3.799    -0.009    20.746     6.485
    41  16 S        1.967    -0.231   150.918    20.676
    42   6 C        3.751    -0.060    21.719     6.646
    43   7 N        2.633    -0.361    29.303     8.040
    44   6 C        3.784     0.037    19.964     6.364
    45   6 C        2.768     0.198    23.783     7.987
    46   8 O        0.856    -0.367    21.043     6.150
    47   6 C        3.818    -0.074    21.898     6.660
    48   6 C        3.852    -0.008    20.691     6.470
    49   6 C        3.764    -0.112    22.676     6.788
    50   6 C        3.762    -0.120    22.842     6.813
    51   7 N        2.639    -0.355    29.153     8.019
    52   6 C        3.794     0.034    20.002     6.369
    53   6 C        2.774     0.209    23.571     7.952
    54   8 O        0.856    -0.364    20.978     6.141
    55   6 C        3.862    -0.017    20.830     6.490
    56   6 C        3.764    -0.121    22.863     6.815
    57   6 C        3.765    -0.114    22.722     6.794
    58   7 N        2.636    -0.363    29.351     8.046
    59   6 C        3.791     0.032    20.038     6.375
    60   6 C        2.772     0.207    23.608     7.958
    61   8 O        0.856    -0.364    20.966     6.139
    62   6 C        3.858    -0.016    20.829     6.491
    63   6 C        3.763    -0.116    22.761     6.800
    64   6 C        3.763    -0.112    22.683     6.789
    65   7 N        2.629    -0.364    29.389     8.051
    66   6 C        3.786     0.027    20.131     6.391
    67   6 C        2.754     0.272    22.408     7.752
    68   8 O        0.858    -0.505    23.891     6.553
    69   6 C        3.806    -0.052    21.506     6.602
    70   6 C        3.804    -0.084    22.105     6.693
    71   6 C        2.687     0.365    20.805     7.465
    72   8 O        0.856    -0.607    26.299     6.876
    73   8 O        0.857    -0.613    26.447     6.895
    74   7 N        2.688    -0.162    24.499     7.351
    75   6 C        3.797     0.023    20.184     6.397
    76   6 C        2.757     0.273    22.392     7.749
    77   8 O        0.858    -0.504    23.871     6.551
    78   6 C        3.815    -0.083    22.073     6.687
    79   6 C        3.852    -0.012    20.759     6.480
    80   6 C        3.765    -0.120    22.847     6.813
    81   6 C        3.762    -0.110    22.645     6.784
    82   7 N        2.689    -0.198    25.293     7.469
    83   6 C        3.792     0.044    19.845     6.344
    84   6 C        2.761     0.181    24.118     8.042
    85   8 O        0.856    -0.382    21.329     6.192
    86   6 C        3.806    -0.092    22.257     6.716
    87   6 C        2.685     0.360    20.899     7.481
    88   8 O        0.856    -0.608    26.329     6.879
    89   8 O        0.857    -0.614    26.469     6.898
    90   7 N        2.630    -0.354    29.121     8.015
    91   6 C        3.785     0.045    19.835     6.344
    92   6 C        2.769     0.192    23.890     8.005
    93   8 O        0.856    -0.354    20.785     6.112
    94   6 C        3.819    -0.073    21.884     6.658
    95   6 C        2.964    -0.008    28.218     8.713
    96   6 C        2.923    -0.055    29.358     8.885
    97   6 C        2.927    -0.054    29.335     8.882
    98   6 C        2.914    -0.082    30.049     8.989
    99   6 C        2.916    -0.059    29.463     8.901
   100   6 C        2.849     0.149    24.769     8.157
   101   8 O        1.661    -0.426    21.361     6.239
   102   1 H        0.980    -0.001     3.060     2.734
   103   1 H        0.980    -0.002     3.087     2.745
   104   1 H        0.980    -0.000     3.055     2.731
   105   1 H        0.980     0.000     3.049     2.728
   106   1 H        0.980    -0.006     3.149     2.773
   107   1 H        0.980    -0.008     3.195     2.793
   108   1 H        0.980     0.016     2.780     2.605
   109   1 H        0.980     0.012     2.855     2.640
   110   1 H        0.980     0.012     2.842     2.634
   111   1 H        0.980    -0.019     3.400     2.881
   112   1 H        0.980     0.000     3.043     2.726
   113   1 H        0.980     0.049     2.328     2.384
   114   1 H        0.980     0.012     2.845     2.636
   115   1 H        0.980     0.010     2.886     2.655
   116   1 H        0.980    -0.009     3.215     2.802
   117   1 H        0.980     0.027     2.616     2.527
   118   1 H        0.980     0.009     2.891     2.657
   119   1 H        0.980     0.003     2.992     2.703
   120   1 H        0.980     0.002     3.021     2.716
   121   1 H        0.980     0.010     2.881     2.652
   122   1 H        0.980    -0.012     3.259     2.821
   123   1 H        0.980    -0.011     3.238     2.812
   124   1 H        0.980     0.027     2.623     2.531
   125   1 H        0.980    -0.008     3.193     2.792
   126   1 H        0.980     0.017     2.771     2.601
   127   1 H        0.980    -0.005     3.144     2.771
   128   1 H        0.980    -0.009     3.213     2.801
   129   1 H        0.860     0.153     1.382     1.841
   130   1 H        0.860     0.165     1.302     1.788
   131   1 H        0.927     0.011     2.870     2.649
   132   1 H        0.927     0.066     2.135     2.285
   133   1 H        0.926     0.049     2.337     2.390
   134   1 H        0.927     0.065     2.139     2.287
   135   1 H        0.927     0.038     2.481     2.463
   136   1 H        0.927     0.062     2.172     2.304
   137   1 H        0.927     0.060     2.198     2.319
   138   1 H        0.927     0.049     2.327     2.385
   139   1 H        0.927     0.077     2.006     2.215
   140   1 H        0.927     0.061     2.188     2.313
   141   1 H        0.927     0.059     2.207     2.323
   142   1 H        0.927     0.064     2.150     2.293
   143   1 H        0.927     0.051     2.303     2.373
   144   1 H        0.927     0.066     2.126     2.280
   145   1 H        0.927     0.057     2.235     2.338
   146   1 H        0.861     0.209     1.061     1.613
   147   1 H        0.927     0.077     2.007     2.215
   148   1 H        0.927     0.060     2.202     2.320
   149   1 H        0.927     0.073     2.050     2.239
   150   1 H        0.929     0.050     2.320     2.382
   151   1 H        0.861     0.229     0.968     1.541
   152   1 H        0.927     0.080     1.976     2.198
   153   1 H        0.927     0.059     2.212     2.326
   154   1 H        0.927     0.062     2.170     2.304
   155   1 H        0.927     0.054     2.270     2.356
   156   1 H        0.926     0.057     2.228     2.334
   157   1 H        0.927     0.073     2.055     2.241
   158   1 H        0.926     0.067     2.121     2.277
   159   1 H        0.927     0.115     1.657     2.013
   160   1 H        0.926     0.117     1.640     2.003
   161   1 H        0.861     0.213     1.042     1.599
   162   1 H        0.927     0.100     1.784     2.089
   163   1 H        0.929     0.079     1.986     2.203
   164   1 H        0.927     0.061     2.181     2.310
   165   1 H        0.927     0.077     2.013     2.219
   166   1 H        0.927     0.061     2.192     2.315
   167   1 H        0.927     0.063     2.162     2.299
   168   1 H        0.927     0.070     2.080     2.255
   169   1 H        0.927     0.055     2.254     2.348
   170   1 H        0.927     0.059     2.214     2.327
   171   1 H        0.860     0.155     1.368     1.832
   172   1 H        0.860     0.161     1.331     1.807
   173   1 H        0.926     0.059     2.205     2.322
   174   1 H        0.929     0.064     2.155     2.295
   175   1 H        0.927     0.050     2.322     2.383
   176   1 H        0.927     0.048     2.342     2.393
   177   1 H        0.927     0.027     2.622     2.532
   178   1 H        0.927     0.046     2.367     2.406
   179   1 H        0.927     0.033     2.543     2.494
   180   1 H        0.927     0.041     2.430     2.438
   181   1 H        0.927     0.041     2.439     2.442
   182   1 H        0.927     0.042     2.429     2.437
   183   1 H        0.927     0.039     2.457     2.451
   184   1 H        0.860     0.156     1.364     1.830
   185   1 H        0.860     0.162     1.325     1.803
   186   1 H        0.927     0.051     2.304     2.374
   187   1 H        0.929     0.063     2.168     2.303
   188   1 H        0.927     0.037     2.495     2.470
   189   1 H        0.927     0.038     2.474     2.460
   190   1 H        0.927     0.040     2.448     2.446
   191   1 H        0.927     0.047     2.362     2.403
   192   1 H        0.927     0.045     2.380     2.413
   193   1 H        0.927     0.048     2.343     2.394
   194   1 H        0.927     0.043     2.404     2.424
   195   1 H        0.860     0.161     1.330     1.806
   196   1 H        0.860     0.163     1.318     1.798
   197   1 H        0.927     0.050     2.325     2.384
   198   1 H        0.929     0.059     2.211     2.325
   199   1 H        0.927     0.038     2.480     2.462
   200   1 H        0.927     0.046     2.371     2.408
   201   1 H        0.927     0.031     2.579     2.511
   202   1 H        0.927     0.050     2.317     2.380
   203   1 H        0.926     0.048     2.341     2.393
   204   1 H        0.927     0.049     2.329     2.387
   205   1 H        0.927     0.035     2.518     2.482
   206   1 H        0.860     0.152     1.385     1.844
   207   1 H        0.860     0.184     1.192     1.710
   208   1 H        0.927     0.029     2.598     2.521
   209   1 H        0.927     0.038     2.477     2.461
   210   1 H        0.927     0.039     2.466     2.456
   211   1 H        0.927     0.032     2.563     2.504
   212   1 H        0.927     0.035     2.514     2.479
   213   1 H        0.861     0.207     1.072     1.622
   214   1 H        0.927     0.070     2.082     2.256
   215   1 H        0.927     0.061     2.187     2.313
   216   1 H        0.927     0.058     2.218     2.329
   217   1 H        0.927     0.034     2.535     2.490
   218   1 H        0.927     0.051     2.303     2.373
   219   1 H        0.927     0.043     2.407     2.426
   220   1 H        0.926     0.049     2.334     2.389
   221   1 H        0.927     0.038     2.475     2.460
   222   1 H        0.927     0.044     2.394     2.419
   223   1 H        0.927     0.033     2.541     2.492
   224   1 H        0.861     0.220     1.010     1.574
   225   1 H        0.927     0.084     1.940     2.178
   226   1 H        0.929     0.097     1.814     2.106
   227   1 H        0.927     0.052     2.293     2.368
   228   1 H        0.927     0.057     2.229     2.335
   229   1 H        0.860     0.154     1.375     1.837
   230   1 H        0.860     0.153     1.380     1.841
   231   1 H        0.927     0.034     2.531     2.488
   232   1 H        0.929     0.059     2.208     2.323
   233   1 H        0.927     0.054     2.268     2.355
   234   1 H        0.927     0.068     2.108     2.270
   235   1 H        0.929     0.045     2.383     2.414
   236   1 H        0.929     0.066     2.129     2.282
   237   1 H        0.929     0.044     2.392     2.419
   238   1 H        0.929     0.058     2.223     2.331
   239   1 H        0.807     0.338     0.617     1.234
   240   1 H        0.980     0.000     3.044     2.726
   241   1 H        0.980     0.005     2.971     2.693
   242   1 H        0.980     0.001     3.032     2.721
   243   1 H        0.980    -0.000     3.056     2.732
   244   1 H        0.980     0.008     2.917     2.669
   245   1 H        0.980     0.032     2.544     2.492
   246   1 H        0.980    -0.029     3.610     2.969
   247   1 H        0.980    -0.022     3.462     2.908
   248   1 H        0.980    -0.013     3.293     2.836
   249   1 H        0.980     0.027     2.619     2.529
   250   1 H        0.980    -0.008     3.191     2.791
   251   1 H        0.980    -0.020     3.414     2.887
   252   1 H        0.980    -0.012     3.274     2.827
   253   1 H        0.980    -0.024     3.507     2.926
   254   1 H        0.980     0.024     2.665     2.551
   255   1 H        0.980    -0.027     3.552     2.945
   256   1 H        0.980    -0.009     3.209     2.799
   257   1 H        0.980    -0.003     3.105     2.754
   258   1 H        0.980    -0.001     3.069     2.738
   259   1 H        0.980    -0.008     3.199     2.795
   260   1 H        0.980     0.012     2.848     2.637
   261   1 H        0.980    -0.001     3.067     2.737
   262   1 H        0.980    -0.016     3.339     2.855
   263   1 H        0.980     0.009     2.890     2.656
   264   1 H        0.980    -0.014     3.304     2.840
   265   1 H        0.980     0.004     2.975     2.695
   266   1 H        0.980     0.005     2.968     2.692
   267   1 H        0.860     0.304     0.702     1.312
   268   1 H        0.860     0.302     0.708     1.318
   269   1 H        0.860     0.291     0.742     1.349
   270   1 H        0.858     0.178     1.226     1.734

 Mol. C6AA /au·bohr⁶  :     573982.783256
 Mol. C8AA /au·bohr⁸  :   12255601.220818
 Mol. α(0) /au        :       1146.406838


Wiberg/Mayer (AO) data.
largest (>0.10) Wiberg bond orders for each atom

 ---------------------------------------------------------------------------
     #   Z sym  total        # sym  WBO       # sym  WBO       # sym  WBO
 ---------------------------------------------------------------------------
     1   7 N    2.989 --     2 C    1.009   129 H    0.962   130 H    0.957
     2   6 C    3.986 --     1 N    1.009     5 C    0.985   131 H    0.960
                             3 C    0.936
     3   6 C    3.945 --     4 O    1.651     9 N    1.274     2 C    0.936
     4   8 O    1.967 --     3 C    1.651     9 N    0.198
     5   6 C    3.994 --     6 C    1.004     2 C    0.985   133 H    0.972
                           132 H    0.971
     6   6 C    3.978 --     5 C    1.004     7 S    0.986   135 H    0.974
                           134 H    0.966
     7  16 S    2.092 --     8 C    1.012     6 C    0.986
     8   6 C    3.978 --     7 S    1.012   138 H    0.976   137 H    0.975
                           136 H    0.970
     9   7 N    3.494 --     3 C    1.274    15 C    0.968    10 C    0.967
                             4 O    0.198
    10   6 C    3.968 --    13 C    0.974     9 N    0.967   139 H    0.956
                            11 C    0.943
    11   6 C    3.949 --    12 O    1.608    16 N    1.326    10 C    0.943
    12   8 O    1.915 --    11 C    1.608    16 N    0.194
    13   6 C    3.990 --    14 C    1.011   140 H    0.976    10 C    0.974
                           141 H    0.972
    14   6 C    3.994 --    13 C    1.011    15 C    1.003   143 H    0.978
                           142 H    0.974
    15   6 C    3.967 --    14 C    1.003   145 H    0.969     9 N    0.968
                           144 H    0.965
    16   7 N    3.491 --    11 C    1.326    17 C    0.977   146 H    0.923
                            12 O    0.194
    17   6 C    3.965 --    16 N    0.977    20 C    0.966   147 H    0.949
                            18 C    0.945
    18   6 C    3.951 --    19 O    1.607    26 N    1.323    17 C    0.945
    19   8 O    1.923 --    18 C    1.607    26 N    0.198
    20   6 C    3.988 --    21 C    1.006   149 H    0.971    17 C    0.966
                           148 H    0.958
    21   6 C    3.946 --    23 C    1.562    22 N    1.219    20 C    1.006
    22   7 N    3.042 --    24 C    1.642    21 C    1.219
    23   6 C    3.924 --    21 C    1.562    25 N    1.177   150 H    0.888
                            24 C    0.125
    24   6 C    3.184 --    22 N    1.642    25 N    1.324    23 C    0.125
    25   7 N    3.585 --    24 C    1.324    23 C    1.177   270 H    0.934
    26   7 N    3.484 --    18 C    1.323    27 C    0.981   151 H    0.891
                            19 O    0.198
    27   6 C    3.966 --    26 N    0.981    30 C    0.963   152 H    0.953
                            28 C    0.945
    28   6 C    3.950 --    29 O    1.627    35 N    1.298    27 C    0.945
    29   8 O    1.977 --    28 C    1.627    35 N    0.191
    30   6 C    3.989 --    31 C    1.003   153 H    0.975   154 H    0.972
                            27 C    0.963
    31   6 C    3.993 --    30 C    1.003    32 C    1.000   156 H    0.980
                           155 H    0.975
    32   6 C    3.988 --    33 C    1.008    31 C    1.000   157 H    0.977
                           158 H    0.970
    33   6 C    3.907 --    32 C    1.008   160 H    0.968   159 H    0.966
                            34 N    0.946
    34   7 N    3.656 --    33 C    0.946   269 H    0.898   268 H    0.896
                           267 H    0.895
    35   7 N    3.462 --    28 C    1.298    36 C    0.973   161 H    0.924
                            29 O    0.191
    36   6 C    3.960 --    37 C    0.983    35 N    0.973    39 C    0.953
                           162 H    0.946
    37   6 C    3.904 --    38 O    1.916    36 C    0.983   163 H    0.947
    38   8 O    2.059 --    37 C    1.916
    39   6 C    3.988 --    40 C    1.006   164 H    0.975   165 H    0.956
                            36 C    0.953
    40   6 C    3.980 --    39 C    1.006    41 S    0.993   167 H    0.972
                           166 H    0.970
    41  16 S    2.093 --    42 C    1.014    40 C    0.993
    42   6 C    3.977 --    41 S    1.014   169 H    0.983   170 H    0.983
                           168 H    0.978
    43   7 N    3.003 --    44 C    1.022   171 H    0.959   172 H    0.956
    44   6 C    3.988 --    43 N    1.022    45 C    0.990   173 H    0.951
                            47 C    0.945
    45   6 C    3.900 --    46 O    1.881    44 C    0.990   174 H    0.952
    46   8 O    2.039 --    45 C    1.881
    47   6 C    3.988 --    48 C    0.988   175 H    0.974   176 H    0.967
                            44 C    0.945
    48   6 C    3.997 --    50 C    1.011    49 C    1.003    47 C    0.988
                           177 H    0.969
    49   6 C    3.993 --    48 C    1.003   179 H    0.986   178 H    0.985
                           180 H    0.977
    50   6 C    3.996 --    48 C    1.011   181 H    0.986   183 H    0.985
                           182 H    0.974
    51   7 N    3.003 --    52 C    1.009   185 H    0.956   184 H    0.951
    52   6 C    3.986 --    51 N    1.009    53 C    0.982   186 H    0.964
                            55 C    0.946
    53   6 C    3.893 --    54 O    1.899    52 C    0.982   187 H    0.950
    54   8 O    2.042 --    53 C    1.899
    55   6 C    3.995 --    57 C    1.010    56 C    1.008   188 H    0.966
                            52 C    0.946
    56   6 C    3.996 --    55 C    1.008   189 H    0.987   191 H    0.985
                           190 H    0.982
    57   6 C    3.995 --    55 C    1.010   193 H    0.982   192 H    0.979
                           194 H    0.978
    58   7 N    3.001 --    59 C    1.011   196 H    0.957   195 H    0.951
    59   6 C    3.986 --    58 N    1.011    60 C    0.984   197 H    0.964
                            62 C    0.941
    60   6 C    3.898 --    61 O    1.900    59 C    0.984   198 H    0.950
    61   8 O    2.045 --    60 C    1.900
    62   6 C    3.994 --    64 C    1.009    63 C    1.008   199 H    0.968
                            59 C    0.941
    63   6 C    3.996 --    62 C    1.008   200 H    0.986   202 H    0.984
                           201 H    0.981
    64   6 C    3.995 --    62 C    1.009   205 H    0.980   203 H    0.980
                           204 H    0.979
    65   7 N    2.991 --    66 C    1.013   206 H    0.959   207 H    0.922
    66   6 C    3.984 --    65 N    1.013   208 H    0.967    69 C    0.964
                            67 C    0.947
    67   6 C    3.941 --    68 O    1.597    74 N    1.322    66 C    0.947
    68   8 O    1.933 --    67 C    1.597    74 N    0.189
    69   6 C    3.989 --    70 C    1.002   210 H    0.978   209 H    0.976
                            66 C    0.964
    70   6 C    3.942 --    69 C    1.002   212 H    0.969   211 H    0.965
                            71 C    0.913
    71   6 C    3.928 --    72 O    1.503    73 O    1.488    70 C    0.913
    72   8 O    1.781 --    71 C    1.503    73 O    0.218
    73   8 O    1.766 --    71 C    1.488    72 O    0.218
    74   7 N    3.484 --    67 C    1.322    75 C    0.976   213 H    0.925
                            68 O    0.189
    75   6 C    3.966 --    74 N    0.976    78 C    0.975   214 H    0.944
                            76 C    0.938
    76   6 C    3.950 --    77 O    1.626    82 N    1.307    75 C    0.938
    77   8 O    1.937 --    76 C    1.626    82 N    0.197
    78   6 C    3.983 --    79 C    0.989    75 C    0.975   216 H    0.974
                           215 H    0.969
    79   6 C    3.995 --    81 C    1.010    80 C    1.006    78 C    0.989
                           217 H    0.969
    80   6 C    3.993 --    79 C    1.006   220 H    0.984   219 H    0.984
                           218 H    0.978
    81   6 C    3.997 --    79 C    1.010   222 H    0.986   223 H    0.986
                           221 H    0.984
    82   7 N    3.465 --    76 C    1.307    83 C    0.977   224 H    0.836
                            77 O    0.197
    83   6 C    3.965 --    82 N    0.977    84 C    0.975    86 C    0.967
                           225 H    0.937
    84   6 C    3.882 --    85 O    1.879    83 C    0.975   226 H    0.881
    85   8 O    2.029 --    84 C    1.879
    86   6 C    3.959 --    83 C    0.967   228 H    0.965   227 H    0.964
                            87 C    0.912
    87   6 C    3.940 --    89 O    1.506    88 O    1.499    86 C    0.912
    88   8 O    1.809 --    87 C    1.499    89 O    0.221
    89   8 O    1.800 --    87 C    1.506    88 O    0.221
    90   7 N    2.991 --    91 C    1.015   229 H    0.963   230 H    0.959
    91   6 C    3.989 --    90 N    1.015    92 C    0.990   231 H    0.953
                            94 C    0.941
    92   6 C    3.907 --    93 O    1.897    91 C    0.990   232 H    0.950
    93   8 O    2.045 --    92 C    1.897
    94   6 C    3.990 --    95 C    1.009   234 H    0.970   233 H    0.969
                            91 C    0.941
    95   6 C    3.986 --    96 C    1.411    97 C    1.389    94 C    1.009
    96   6 C    3.990 --    98 C    1.448    95 C    1.411   235 H    0.972
                            99 C    0.105
    97   6 C    3.990 --    99 C    1.472    95 C    1.389   236 H    0.959
                            98 C    0.100
    98   6 C    3.986 --    96 C    1.448   100 C    1.369   237 H    0.971
                            97 C    0.100
    99   6 C    3.988 --    97 C    1.472   100 C    1.351   238 H    0.964
                            96 C    0.105
   100   6 C    3.929 --    98 C    1.369    99 C    1.351   101 O    1.077
   101   8 O    2.109 --   100 C    1.077   239 H    0.865
   102   1 H    1.000 --   240 H    0.997
   103   1 H    1.000 --   241 H    0.989
   104   1 H    1.000 --   242 H    0.991
   105   1 H    1.000 --   243 H    0.982
   106   1 H    1.000 --   244 H    0.975
   107   1 H    1.000 --   245 H    0.887
   108   1 H    1.000 --   246 H    0.947
   109   1 H    1.000 --   247 H    0.936
   110   1 H    1.000 --   248 H    0.947
   111   1 H    1.000 --   249 H    0.931
   112   1 H    1.000 --   250 H    0.963
   113   1 H    0.997 --   251 H    0.922
   114   1 H    1.000 --   252 H    0.989
   115   1 H    1.000 --   253 H    0.967
   116   1 H    1.000 --   254 H    0.908
   117   1 H    0.999 --   255 H    0.922
   118   1 H    1.000 --   256 H    0.983
   119   1 H    1.000 --   257 H    0.991
   120   1 H    1.000 --   258 H    0.985
   121   1 H    1.000 --   259 H    0.970
   122   1 H    1.000 --   260 H    0.963
   123   1 H    1.000 --   261 H    0.967
   124   1 H    0.999 --   262 H    0.914
   125   1 H    1.000 --   263 H    0.928
   126   1 H    1.000 --   264 H    0.966
   127   1 H    1.000 --   265 H    0.970
   128   1 H    1.000 --   266 H    0.974
   129   1 H    0.976 --     1 N    0.962
   130   1 H    0.972 --     1 N    0.957
   131   1 H    1.000 --     2 C    0.960
   132   1 H    0.996 --     5 C    0.971
   133   1 H    0.997 --     5 C    0.972
   134   1 H    0.996 --     6 C    0.966
   135   1 H    0.998 --     6 C    0.974
   136   1 H    0.996 --     8 C    0.970
   137   1 H    0.996 --     8 C    0.975
   138   1 H    0.998 --     8 C    0.976
   139   1 H    0.994 --    10 C    0.956
   140   1 H    0.996 --    13 C    0.976
   141   1 H    0.996 --    13 C    0.972
   142   1 H    0.995 --    14 C    0.974
   143   1 H    0.997 --    14 C    0.978
   144   1 H    0.996 --    15 C    0.965
   145   1 H    0.997 --    15 C    0.969
   146   1 H    0.956 --    16 N    0.923
   147   1 H    0.994 --    17 C    0.949
   148   1 H    0.996 --    20 C    0.958
   149   1 H    0.994 --    20 C    0.971
   150   1 H    0.997 --    23 C    0.888
   151   1 H    0.947 --    26 N    0.891
   152   1 H    0.993 --    27 C    0.953
   153   1 H    0.996 --    30 C    0.975
   154   1 H    0.996 --    30 C    0.972
   155   1 H    0.997 --    31 C    0.975
   156   1 H    0.997 --    31 C    0.980
   157   1 H    0.995 --    32 C    0.977
   158   1 H    0.996 --    32 C    0.970
   159   1 H    0.987 --    33 C    0.966
   160   1 H    0.986 --    33 C    0.968
   161   1 H    0.954 --    35 N    0.924
   162   1 H    0.990 --    36 C    0.946
   163   1 H    0.994 --    37 C    0.947
   164   1 H    0.996 --    39 C    0.975
   165   1 H    0.994 --    39 C    0.956
   166   1 H    0.996 --    40 C    0.970
   167   1 H    0.996 --    40 C    0.972
   168   1 H    0.995 --    42 C    0.978
   169   1 H    0.997 --    42 C    0.983
   170   1 H    0.996 --    42 C    0.983
   171   1 H    0.976 --    43 N    0.959
   172   1 H    0.974 --    43 N    0.956
   173   1 H    0.996 --    44 C    0.951
   174   1 H    0.996 --    45 C    0.952
   175   1 H    0.997 --    47 C    0.974
   176   1 H    0.998 --    47 C    0.967
   177   1 H    0.999 --    48 C    0.969
   178   1 H    0.998 --    49 C    0.985
   179   1 H    0.999 --    49 C    0.986
   180   1 H    0.997 --    49 C    0.977
   181   1 H    0.998 --    50 C    0.986
   182   1 H    0.998 --    50 C    0.974
   183   1 H    0.998 --    50 C    0.985
   184   1 H    0.976 --    51 N    0.951
   185   1 H    0.974 --    51 N    0.956
   186   1 H    0.997 --    52 C    0.964
   187   1 H    0.996 --    53 C    0.950
   188   1 H    0.998 --    55 C    0.966
   189   1 H    0.999 --    56 C    0.987
   190   1 H    0.998 --    56 C    0.982
   191   1 H    0.998 --    56 C    0.985
   192   1 H    0.998 --    57 C    0.979
   193   1 H    0.998 --    57 C    0.982
   194   1 H    0.998 --    57 C    0.978
   195   1 H    0.974 --    58 N    0.951
   196   1 H    0.974 --    58 N    0.957
   197   1 H    0.998 --    59 C    0.964
   198   1 H    0.997 --    60 C    0.950
   199   1 H    0.998 --    62 C    0.968
   200   1 H    0.998 --    63 C    0.986
   201   1 H    0.999 --    63 C    0.981
   202   1 H    0.997 --    63 C    0.984
   203   1 H    0.998 --    64 C    0.980
   204   1 H    0.998 --    64 C    0.979
   205   1 H    0.999 --    64 C    0.980
   206   1 H    0.976 --    65 N    0.959
   207   1 H    0.966 --    65 N    0.922
   208   1 H    0.998 --    66 C    0.967
   209   1 H    0.998 --    69 C    0.976
   210   1 H    0.998 --    69 C    0.978
   211   1 H    0.998 --    70 C    0.965
   212   1 H    0.998 --    70 C    0.969
   213   1 H    0.957 --    74 N    0.925
   214   1 H    0.995 --    75 C    0.944
   215   1 H    0.996 --    78 C    0.969
   216   1 H    0.996 --    78 C    0.974
   217   1 H    0.999 --    79 C    0.969
   218   1 H    0.997 --    80 C    0.978
   219   1 H    0.998 --    80 C    0.984
   220   1 H    0.997 --    80 C    0.984
   221   1 H    0.999 --    81 C    0.984
   222   1 H    0.998 --    81 C    0.986
   223   1 H    0.999 --    81 C    0.986
   224   1 H    0.952 --    82 N    0.836
   225   1 H    0.992 --    83 C    0.937
   226   1 H    0.990 --    84 C    0.881
   227   1 H    0.997 --    86 C    0.964
   228   1 H    0.996 --    86 C    0.965
   229   1 H    0.976 --    90 N    0.963
   230   1 H    0.977 --    90 N    0.959
   231   1 H    0.999 --    91 C    0.953
   232   1 H    0.996 --    92 C    0.950
   233   1 H    0.997 --    94 C    0.969
   234   1 H    0.995 --    94 C    0.970
   235   1 H    0.998 --    96 C    0.972
   236   1 H    0.996 --    97 C    0.959
   237   1 H    0.998 --    98 C    0.971
   238   1 H    0.996 --    99 C    0.964
   239   1 H    0.886 --   101 O    0.865
   240   1 H    1.000 --   102 H    0.997
   241   1 H    1.000 --   103 H    0.989
   242   1 H    1.000 --   104 H    0.991
   243   1 H    1.000 --   105 H    0.982
   244   1 H    1.000 --   106 H    0.975
   245   1 H    0.999 --   107 H    0.887
   246   1 H    0.999 --   108 H    0.947
   247   1 H    0.999 --   109 H    0.936
   248   1 H    1.000 --   110 H    0.947
   249   1 H    0.999 --   111 H    0.931
   250   1 H    1.000 --   112 H    0.963
   251   1 H    1.000 --   113 H    0.922
   252   1 H    1.000 --   114 H    0.989
   253   1 H    0.999 --   115 H    0.967
   254   1 H    0.999 --   116 H    0.908
   255   1 H    0.999 --   117 H    0.922
   256   1 H    1.000 --   118 H    0.983
   257   1 H    1.000 --   119 H    0.991
   258   1 H    1.000 --   120 H    0.985
   259   1 H    1.000 --   121 H    0.970
   260   1 H    1.000 --   122 H    0.963
   261   1 H    1.000 --   123 H    0.967
   262   1 H    1.000 --   124 H    0.914
   263   1 H    1.000 --   125 H    0.928
   264   1 H    1.000 --   126 H    0.966
   265   1 H    1.000 --   127 H    0.970
   266   1 H    1.000 --   128 H    0.974
   267   1 H    0.907 --    34 N    0.895
   268   1 H    0.909 --    34 N    0.896
   269   1 H    0.916 --    34 N    0.898
   270   1 H    0.968 --    25 N    0.934
 ---------------------------------------------------------------------------

Topologies differ in total number of bonds
Writing topology from bond orders to xtbtopo.mol

molecular dipole:
                 x           y           z       tot (Debye)
 q only:        2.878     110.734    -129.754
   full:        3.563     111.444    -131.452     438.125
molecular quadrupole (traceless):
                xx          xy          yy          xz          yz          zz
 q only:    14681.839    -445.436   -3984.525     617.843   21534.530  -10697.314
  q+dip:    15005.182    -570.117   -3899.303     764.276   21949.100  -11105.879
   full:    14992.699    -569.991   -3898.252     762.763   21951.511  -11094.447


           -------------------------------------------------
          | TOTAL ENERGY             -346.966252969805 Eh   |
          | GRADIENT NORM               1.490197436628 Eh/α |
          | HOMO-LUMO GAP               1.021276428500 eV   |
           -------------------------------------------------
########################################################################
[WARNING] Runtime exception occurred
-3- restart_readRestart: Dimension missmatch in restart file.
-2- restart_readRestart: Multiplicity missmatch in restart file.
-1- restart_readRestart: Number of electron missmatch in restart file.
########################################################################

------------------------------------------------------------------------
 * finished run on 2025/05/05 at 17:16:06.577     
------------------------------------------------------------------------
 total:
 * wall-time:     0 d,  0 h,  0 min,  1.220 sec
 *  cpu-time:     0 d,  0 h,  0 min, 36.384 sec
 * ratio c/w:    29.815 speedup
 SCF:
 * wall-time:     0 d,  0 h,  0 min,  1.192 sec
 *  cpu-time:     0 d,  0 h,  0 min, 35.615 sec
 * ratio c/w:    29.883 speedup

