      -----------------------------------------------------------      
     |                   =====================                   |     
     |                           x T B                           |     
     |                   =====================                   |     
     |                         S. Grimme                         |     
     |          Mulliken Center for Theoretical Chemistry        |     
     |                    University of Bonn                     |     
      -----------------------------------------------------------      

   * xtb version 6.7.1 (edcfbbe) compiled by 'conda@afd1a870197c' on 2025-04-11

   xtb is free software: you can redistribute it and/or modify it under
   the terms of the GNU Lesser General Public License as published by
   the Free Software Foundation, either version 3 of the License, or
   (at your option) any later version.
   
   xtb is distributed in the hope that it will be useful,
   but WITHOUT ANY WARRANTY; without even the implied warranty of
   MERCHANTABILITY or FITNESS FOR A PARTICULAR PURPOSE.  See the
   GNU Lesser General Public License for more details.
   
   Cite this work as:
   * C. Bannwarth, E. Caldeweyher, S. Ehlert, A. Hansen, P. Pracht,
     J. Seibert, S. Spicher, S. Grimme, WIREs Comput. Mol. Sci., 2020, 11,
     e01493. DOI: 10.1002/wcms.1493
   
   for GFN2-xTB:
   * C. Bannwarth, S. Ehlert and S. Grimme., J. Chem. Theory Comput., 2019,
     15, 1652-1671. DOI: 10.1021/acs.jctc.8b01176
   for GFN1-xTB:
   * S. Grimme, C. Bannwarth, P. Shushkov, J. Chem. Theory Comput., 2017,
     13, 1989-2009. DOI: 10.1021/acs.jctc.7b00118
   for GFN0-xTB:
   * P. Pracht, E. Caldeweyher, S. Ehlert, S. Grimme, ChemRxiv, 2019, preprint.
     DOI: 10.26434/chemrxiv.8326202.v1
   for GFN-FF:
   * S. Spicher and S. Grimme, Angew. Chem. Int. Ed., 2020, 59, 15665-15673.
     DOI: 10.1002/anie.202004239
   
   for ALPB and GBSA implicit solvation:
   * S. Ehlert, M. Stahn, S. Spicher, S. Grimme, J. Chem. Theory Comput.,
     2021, 17, 4250-4261. DOI: 10.1021/acs.jctc.1c00471
   
   for ddCOSMO and CPCM-X implicit solvation:
   * M. Stahn, S. Ehlert, S. Grimme, J. Phys. Chem. A,
     2023, XX, XXXX-XXXX. DOI: 10.1021/acs.jpca.3c04382
   
   for DFT-D4:
   * E. Caldeweyher, C. Bannwarth and S. Grimme, J. Chem. Phys., 2017,
     147, 034112. DOI: 10.1063/1.4993215
   * E. Caldeweyher, S. Ehlert, A. Hansen, H. Neugebauer, S. Spicher,
     C. Bannwarth and S. Grimme, J. Chem. Phys., 2019, 150, 154122.
     DOI: 10.1063/1.5090222
   * E. Caldeweyher, J.-M. Mewes, S. Ehlert and S. Grimme, Phys. Chem. Chem. Phys.
     2020, 22, 8499-8512. DOI: 10.1039/D0CP00502A
   
   for sTDA-xTB:
   * S. Grimme and C. Bannwarth, J. Chem. Phys., 2016, 145, 054103.
     DOI: 10.1063/1.4959605
   
   in the mass-spec context:
   * V. Asgeirsson, C. Bauer and S. Grimme, Chem. Sci., 2017, 8, 4879.
     DOI: 10.1039/c7sc00601b
   * J. Koopman and S. Grimme, ACS Omega 2019, 4, 12, 15120-15133.
     DOI: 10.1021/acsomega.9b02011
   
   for metadynamics refer to:
   * S. Grimme, J. Chem. Theory Comput., 2019, 155, 2847-2862
     DOI: 10.1021/acs.jctc.9b00143
   
   for SPH calculations refer to:
   * S. Spicher and S. Grimme, J. Chem. Theory Comput., 2021, 17, 1701-1714
     DOI: 10.1021/acs.jctc.0c01306
   
   for ONIOM refer to:
   * C. Plett, A. Katbashev, S. Ehlert, S. Grimme, M. Bursch,
     Phys. Chem. Chem. Phys., 2023, 25, 17860-17868. DOI: 10.1039/D3CP02178E
   
   for DIPRO refer to:
   * J. Kohn, N. Gildemeister, S. Grimme, D. Fazzi, A. Hansen,
     J. Chem. Phys., 2023, just accepted.
   
   for PTB refer to:
   * S. Grimme, M. Mueller, A. Hansen, J. Chem. Phys., 2023, 158, 124111.
     DOI: 10.1063/5.0137838
   
   with help from (in alphabetical order)
   P. Atkinson, C. Bannwarth, F. Bohle, G. Brandenburg, E. Caldeweyher
   M. Checinski, S. Dohm, S. Ehlert, S. Ehrlich, I. Gerasimov, C. Hölzer
   A. Katbashev, J. Kohn, J. Koopman, C. Lavigne, S. Lehtola, F. März, M. Müller,
   F. Musil, H. Neugebauer, J. Pisarek, C. Plett, P. Pracht, F. Pultar,
   J. Seibert, P. Shushkov, S. Spicher, M. Stahn, M. Steiner, T. Strunk,
   J. Stückrath, T. Rose, and J. Unsleber
   
 * started run on 2025/05/05 at 16:38:46.217     
   ID    Z sym.   atoms
    1    7 N      1, 5, 13, 19, 28, 36, 44, 52, 60, 68, 74, 81, 87, 90, 91,
                  99, 100, 107, 119, 126, 131
    2    6 C      2, 3, 6, 7, 9-12, 14-18, 20, 21, 23-25, 29, 30, 32, 33, 35,
                  37, 38, 40-43, 45, 46, 48-51, 53, 54, 56, 57, 61, 62,
                  64-67, 69-73, 75, 76, 78-80, 82, 83, 85, 86, 88, 89, 92,
                  93, 95-98, 101, 102, 104, 106, 108, 109, 111-117, 120, 121,
                  123-125, 127, 128, 130, 132, 133, 135-141
    3    8 O      4, 8, 22, 26, 27, 31, 39, 47, 55, 58, 59, 63, 77, 84, 94,
                  103, 105, 110, 118, 122, 129, 134
    4   16 S      34
    5    1 H      142-298

           -------------------------------------------------
          |                Calculation Setup                |
           -------------------------------------------------

          program call               : xtb /tmp/tmp3uo1ovu9/HID/input.xyz --alpb ether --chrg -1 --input /tmp/tmp3uo1ovu9/HID/constraints.inp --gfn 2
          hostname                   : fedora
          coordinate file            : /tmp/tmp3uo1ovu9/HID/input.xyz
          omp threads                :                    32


molecular fragmentation (1/2 indicates fragments):
111111111111111111111111111111111111111111122222222222222222222222222222
222222222222222222222222222222222222222222222222222222222222222222222222
222222111111111111111111111111111111111111111122222222222222222222222222
222222222222222222222222222222222222222222222222222222222222222222222222
2222222222
# atoms in fragment 1/2:    83   215
 fragment masses (1/2) :      616.73     1384.75
CMA distance (Bohr)    :  11.789
constraining FC (au)   :  0.0500

           -------------------------------------------------
          |                 G F N 2 - x T B                 |
           -------------------------------------------------

        Reference                      10.1021/acs.jctc.8b01176
      * Hamiltonian:
        H0-scaling (s, p, d)           1.850000    2.230000    2.230000
        zeta-weighting                 0.500000
      * Dispersion:
        s8                             2.700000
        a1                             0.520000
        a2                             5.000000
        s9                             5.000000
      * Repulsion:
        kExp                           1.500000    1.000000
        rExp                           1.000000
      * Coulomb:
        alpha                          2.000000
        third order                    shell-resolved
        anisotropic                    true
        a3                             3.000000
        a5                             4.000000
        cn-shift                       1.200000
        cn-exp                         4.000000
        max-rad                        5.000000

      * Solvation model:               ALPB
        Solvent                        ether
        Parameter file                 internal GFN2-xTB/ALPB
        Dielectric constant                4.3300E+00
        Reference state                gsolv [1 M gas/solution]
        Free energy shift                  4.9534E-03 Eh       3.1083E+00 kcal/mol
        Temperature                        2.9815E+02 K
        Density                            7.1300E-01 kg/L
        Solvent mass                       7.4120E+01 g/mol
        Interaction kernel             P16
        Born radius scaling (c1)           1.5847E+00
        Born radii integrator          GBOBC
        Born offset                        0.0000E+00 a0       0.0000E+00 AA
        H-bond correction              true
        Ion screening                  false
        Surface tension                    1.0000E-05 Eh       1.5569E+01 dyn/cm
        Grid points                               230 per atom

          ...................................................
          :                      SETUP                      :
          :.................................................:
          :  # basis functions                 727          :
          :  # atomic orbitals                 726          :
          :  # shells                          440          :
          :  # electrons                       789          :
          :  max. iterations                   250          :
          :  Hamiltonian                  GFN2-xTB          :
          :  restarted?                      false          :
          :  GBSA solvation                   true          :
          :  PC potential                    false          :
          :  electronic temp.          300.0000000     K    :
          :  accuracy                    1.0000000          :
          :  -> integral cutoff          0.2500000E+02      :
          :  -> integral neglect         0.1000000E-07      :
          :  -> SCF convergence          0.1000000E-05 Eh   :
          :  -> wf. convergence          0.1000000E-03 e    :
          :  Broyden damping             0.4000000          :
          :  net charge                         -1          :
          :  unpaired electrons                  0          :
          ...................................................

 iter      E             dE          RMSdq      gap      omega  full diag
   1   -445.9187133 -0.445919E+03  0.438E+00    0.11       0.0  T
   2   -444.0300641  0.188865E+01  0.330E+00    0.33       1.0  T
   3   -444.9610296 -0.930966E+00  0.290E+00    0.02       1.0  T
   4   -447.2002438 -0.223921E+01  0.185E+00    0.24       1.0  T
   5   -447.4392227 -0.238979E+00  0.138E+00    0.04       1.0  T
   6   -447.6827511 -0.243528E+00  0.118E+00    0.23       1.0  T
   7   -447.5212810  0.161470E+00  0.111E+00    0.16       1.0  T
   8   -447.5557725 -0.344915E-01  0.938E-01    0.26       1.0  T
   9   -447.7729825 -0.217210E+00  0.830E-01    0.50       1.0  T
  10   -447.9065743 -0.133592E+00  0.572E-01    0.00       1.0  T
  11   -447.8688881  0.376862E-01  0.653E-01    0.17       1.0  T
  12   -447.7222369  0.146651E+00  0.766E-01    0.06       1.0  T
  13   -447.6596757  0.625612E-01  0.803E-01    0.10       1.0  T
  14   -447.9758241 -0.316148E+00  0.376E-01    0.04       1.0  T
  15   -447.9643853  0.114388E-01  0.418E-01    0.01       1.0  T
  16   -447.9485767  0.158086E-01  0.429E-01    0.05       1.0  T
  17   -447.9778795 -0.293028E-01  0.346E-01    0.00       1.0  T
  18   -448.0179269 -0.400474E-01  0.226E-01    0.03       1.0  T
  19   -447.9899322  0.279947E-01  0.327E-01    0.02       1.0  T
  20   -448.0184674 -0.285352E-01  0.221E-01    0.02       1.0  T
  21   -448.0308868 -0.124194E-01  0.159E-01    0.04       1.0  T
  22   -448.0367132 -0.582638E-02  0.124E-01    0.01       1.0  T
  23   -448.0398855 -0.317231E-02  0.967E-02    0.01       1.0  T
  24   -448.0442971 -0.441157E-02  0.426E-02    0.02       1.0  T
  25   -448.0449618 -0.664701E-03  0.242E-02    0.02       1.0  T
  26   -448.0451906 -0.228796E-03  0.132E-02    0.02       1.0  T
  27   -448.0452099 -0.192967E-04  0.115E-02    0.02       1.0  T
  28   -448.0452440 -0.341646E-04  0.837E-03    0.02       1.0  T
  29   -448.0452735 -0.294244E-04  0.465E-03    0.02       1.2  T
  30   -448.0452830 -0.957346E-05  0.186E-03    0.02       3.1  T
  31   -448.0452835 -0.441801E-06  0.165E-03    0.02       3.5  T
  32   -448.0452847 -0.120042E-05  0.709E-04    0.02       8.2  T
  33   -448.0452849 -0.188484E-06  0.355E-04    0.02      16.3  T
  34   -448.0452849 -0.640393E-07  0.132E-04    0.02      44.0  T

   *** convergence criteria satisfied after 34 iterations ***

         #    Occupation            Energy/Eh            Energy/eV
      -------------------------------------------------------------
         1        2.0000           -0.7532283             -20.4964
       ...           ...                  ...                  ...
       389        1.9988           -0.3375795              -9.1860
       390        1.9861           -0.3352551              -9.1228
       391        1.9848           -0.3351706              -9.1205
       392        1.7279           -0.3322683              -9.0415
       393        1.7099           -0.3321954              -9.0395
       394        1.3784           -0.3312213              -9.0130
       395        1.2843           -0.3310069              -9.0072 (HOMO)
       396        0.9306           -0.3302679              -8.9870 (LUMO)
       397        0.0000           -0.3162162              -8.6047
       398                         -0.2888202              -7.8592
       399                         -0.2665555              -7.2533
       400                         -0.2563908              -6.9767
       ...                                ...                  ...
       726                          1.1765403              32.0153
      -------------------------------------------------------------
                  HL-Gap            0.0007390 Eh            0.0201 eV
             Fermi-level           -0.3304102 Eh           -8.9909 eV

 SCC (total)                   0 d,  0 h,  0 min,  2.377 sec
 SCC setup                      ...        0 min,  0.006 sec (  0.240%)
 Dispersion                     ...        0 min,  0.015 sec (  0.642%)
 classical contributions        ...        0 min,  0.001 sec (  0.035%)
 integral evaluation            ...        0 min,  0.042 sec (  1.779%)
 iterations                     ...        0 min,  2.186 sec ( 91.963%)
 molecular gradient             ...        0 min,  0.118 sec (  4.944%)
 printout                       ...        0 min,  0.009 sec (  0.395%)

         :::::::::::::::::::::::::::::::::::::::::::::::::::::
         ::                     SUMMARY                     ::
         :::::::::::::::::::::::::::::::::::::::::::::::::::::
         :: total energy            -441.259723082874 Eh    ::
         :: total w/o Gsasa/hb      -441.155336204750 Eh    ::
         :: gradient norm              0.942525112586 Eh/a0 ::
         :: HOMO-LUMO gap              0.020109418796 eV    ::
         ::.................................................::
         :: SCC energy              -448.005144733162 Eh    ::
         :: -> isotropic ES            1.173574995471 Eh    ::
         :: -> anisotropic ES          0.055408554347 Eh    ::
         :: -> anisotropic XC          0.213188262655 Eh    ::
         :: -> dispersion             -0.393810740989 Eh    ::
         :: -> Gsolv                  -0.310436109134 Eh    ::
         ::    -> Gelec               -0.206049231009 Eh    ::
         ::    -> Gsasa               -0.091596231799 Eh    ::
         ::    -> Ghb                 -0.017744083903 Eh    ::
         ::    -> Gshift               0.004953437577 Eh    ::
         :: repulsion energy           6.745421650287 Eh    ::
         :: add. restraining           0.000000000000 Eh    ::
         :: total charge              -1.000000000000 e     ::
         :::::::::::::::::::::::::::::::::::::::::::::::::::::

           -------------------------------------------------
          |                Property Printout                |
           -------------------------------------------------

    * Orbital Energies and Occupations

         #    Occupation            Energy/Eh            Energy/eV
      -------------------------------------------------------------
         1        2.0000           -0.7532283             -20.4964
       ...           ...                  ...                  ...
       383        2.0000           -0.3508726              -9.5477
       384        2.0000           -0.3498122              -9.5189
       385        2.0000           -0.3489130              -9.4944
       386        2.0000           -0.3438008              -9.3553
       387        2.0000           -0.3434410              -9.3455
       388        1.9994           -0.3381932              -9.2027
       389        1.9988           -0.3375795              -9.1860
       390        1.9861           -0.3352551              -9.1228
       391        1.9848           -0.3351706              -9.1205
       392        1.7279           -0.3322683              -9.0415
       393        1.7099           -0.3321954              -9.0395
       394        1.3784           -0.3312213              -9.0130
       395        1.2843           -0.3310069              -9.0072 (HOMO)
       396        0.9306           -0.3302679              -8.9870 (LUMO)
       397        0.0000           -0.3162162              -8.6047
       398                         -0.2888202              -7.8592
       399                         -0.2665555              -7.2533
       400                         -0.2563908              -6.9767
       401                         -0.2500355              -6.8038
       402                         -0.2348266              -6.3900
       403                         -0.2158211              -5.8728
       404                         -0.2125294              -5.7832
       405                         -0.2113059              -5.7499
       406                         -0.2109886              -5.7413
       ...                                ...                  ...
       726                          1.1765403              32.0153
      -------------------------------------------------------------
                  HL-Gap            0.0007390 Eh            0.0201 eV
             Fermi-level           -0.3304102 Eh           -8.9909 eV

     #   Z          covCN         q      C6AA      α(0)
     1   7 N        2.629    -0.370    29.550     8.073
     2   6 C        3.741    -0.013    20.876     6.519
     3   6 C        2.754     0.273    22.381     7.747
     4   8 O        0.859    -0.498    23.746     6.533
     5   7 N        2.689    -0.163    24.516     7.354
     6   6 C        3.801     0.031    20.046     6.375
     7   6 C        2.755     0.275    22.357     7.743
     8   8 O        0.858    -0.495    23.671     6.523
     9   6 C        3.812    -0.069    21.811     6.647
    10   6 C        3.046    -0.021    28.494     8.755
    11   6 C        3.028     0.014    27.667     8.628
    12   6 C        3.111    -0.034    28.698     8.776
    13   7 N        1.915    -0.331    29.425     8.043
    14   6 C        3.073     0.058    26.636     8.462
    15   6 C        2.911    -0.042    29.033     8.836
    16   6 C        2.909    -0.046    29.153     8.854
    17   6 C        2.916    -0.049    29.225     8.865
    18   6 C        2.923    -0.046    29.154     8.855
    19   7 N        2.694    -0.155    24.358     7.330
    20   6 C        3.797     0.025    20.164     6.394
    21   6 C        2.758     0.275    22.342     7.740
    22   8 O        0.858    -0.492    23.600     6.513
    23   6 C        3.808    -0.056    21.577     6.612
    24   6 C        3.806    -0.078    21.993     6.676
    25   6 C        2.688     0.376    20.631     7.433
    26   8 O        0.857    -0.550    24.926     6.694
    27   8 O        0.857    -0.569    25.377     6.754
    28   7 N        2.687    -0.156    24.381     7.333
    29   6 C        3.797     0.018    20.277     6.412
    30   6 C        2.755     0.267    22.491     7.766
    31   8 O        0.858    -0.499    23.758     6.535
    32   6 C        3.827    -0.070    21.813     6.646
    33   6 C        3.798    -0.012    20.795     6.493
    34  16 S        1.961    -0.233   151.033    20.684
    35   6 C        3.751    -0.056    21.638     6.634
    36   7 N        2.693    -0.162    24.509     7.353
    37   6 C        3.791     0.027    20.131     6.390
    38   6 C        2.769     0.189    23.946     8.014
    39   8 O        0.856    -0.336    20.439     6.061
    40   6 C        3.814    -0.079    21.989     6.674
    41   6 C        3.852    -0.010    20.712     6.473
    42   6 C        3.762    -0.105    22.550     6.769
    43   6 C        3.763    -0.114    22.733     6.796
    44   7 N        2.629    -0.364    29.382     8.050
    45   6 C        3.785     0.035    19.993     6.369
    46   6 C        2.762     0.192    23.900     8.006
    47   8 O        0.856    -0.375    21.188     6.171
    48   6 C        3.853    -0.028    21.029     6.522
    49   6 C        3.806    -0.069    21.820     6.650
    50   6 C        3.761    -0.104    22.529     6.766
    51   6 C        3.755    -0.103    22.527     6.768
    52   7 N        2.630    -0.376    29.723     8.097
    53   6 C        3.783     0.044    19.857     6.348
    54   6 C        2.761     0.195    23.840     7.996
    55   8 O        0.856    -0.364    20.984     6.142
    56   6 C        3.809    -0.073    21.893     6.660
    57   6 C        2.688     0.378    20.596     7.427
    58   8 O        0.856    -0.563    25.225     6.734
    59   8 O        0.857    -0.548    24.884     6.688
    60   7 N        2.642    -0.346    28.920     7.987
    61   6 C        3.790     0.044    19.840     6.343
    62   6 C        2.766     0.269    22.457     7.761
    63   8 O        0.858    -0.495    23.671     6.523
    64   6 C        3.812    -0.065    21.729     6.635
    65   6 C        3.041    -0.020    28.470     8.752
    66   6 C        3.024     0.021    27.506     8.603
    67   6 C        3.110    -0.036    28.753     8.785
    68   7 N        1.913    -0.317    29.066     7.993
    69   6 C        3.069     0.061    26.569     8.452
    70   6 C        2.912    -0.043    29.067     8.841
    71   6 C        2.909    -0.041    29.025     8.834
    72   6 C        2.917    -0.054    29.345     8.883
    73   6 C        2.923    -0.047    29.159     8.855
    74   7 N        2.695    -0.174    24.770     7.392
    75   6 C        3.802     0.019    20.261     6.408
    76   6 C        2.768     0.273    22.384     7.748
    77   8 O        0.859    -0.503    23.853     6.548
    78   6 C        3.855    -0.016    20.818     6.489
    79   6 C        3.761    -0.112    22.690     6.790
    80   6 C        3.760    -0.119    22.835     6.812
    81   7 N        2.689    -0.161    24.488     7.350
    82   6 C        3.803     0.024    20.173     6.394
    83   6 C        2.751     0.271    22.424     7.754
    84   8 O        0.858    -0.492    23.602     6.514
    85   6 C        3.810    -0.073    21.886     6.659
    86   6 C        3.085     0.024    27.383     8.578
    87   7 N        2.849    -0.116    23.523     7.203
    88   6 C        3.059     0.014    27.652     8.623
    89   6 C        2.108     0.028    30.139     8.871
    90   7 N        1.979    -0.231    26.855     7.685
    91   7 N        2.691    -0.170    24.673     7.377
    92   6 C        3.798     0.022    20.202     6.400
    93   6 C        2.760     0.272    22.403     7.751
    94   8 O        0.858    -0.484    23.426     6.489
    95   6 C        3.808    -0.072    21.862     6.656
    96   6 C        3.805    -0.087    22.160     6.702
    97   6 C        3.806    -0.088    22.177     6.704
    98   6 C        3.735    -0.048    21.524     6.621
    99   7 N        3.486    -0.157    24.384     7.334
   100   7 N        2.693    -0.161    24.480     7.348
   101   6 C        3.797     0.017    20.293     6.414
   102   6 C        2.766     0.193    23.883     8.003
   103   8 O        0.856    -0.358    20.865     6.124
   104   6 C        3.727     0.107    18.915     6.209
   105   8 O        1.653    -0.471    22.282     6.372
   106   6 C        3.756    -0.147    23.387     6.895
   107   7 N        2.633    -0.363    29.361     8.047
   108   6 C        3.794     0.041    19.888     6.351
   109   6 C        2.760     0.266    22.505     7.769
   110   8 O        0.858    -0.493    23.637     6.518
   111   6 C        3.817    -0.076    21.943     6.667
   112   6 C        2.963    -0.008    28.214     8.713
   113   6 C        2.928    -0.048    29.196     8.861
   114   6 C        2.926    -0.048    29.188     8.860
   115   6 C        2.918    -0.082    30.039     8.988
   116   6 C        2.918    -0.061    29.515     8.909
   117   6 C        2.848     0.143    24.875     8.174
   118   8 O        1.661    -0.449    21.812     6.305
   119   7 N        2.694    -0.169    24.651     7.374
   120   6 C        3.800     0.015    20.318     6.418
   121   6 C        2.760     0.270    22.443     7.758
   122   8 O        0.859    -0.499    23.753     6.534
   123   6 C        3.854    -0.014    20.794     6.486
   124   6 C        3.761    -0.116    22.760     6.801
   125   6 C        3.760    -0.116    22.775     6.803
   126   7 N        2.691    -0.160    24.465     7.346
   127   6 C        3.800     0.019    20.251     6.407
   128   6 C        2.761     0.269    22.465     7.762
   129   8 O        0.859    -0.502    23.832     6.545
   130   6 C        3.763    -0.114    22.726     6.795
   131   7 N        2.688    -0.168    24.628     7.371
   132   6 C        3.797     0.032    20.036     6.374
   133   6 C        2.763     0.197    23.806     7.990
   134   8 O        0.856    -0.366    21.008     6.145
   135   6 C        3.813    -0.075    21.924     6.665
   136   6 C        2.963     0.007    27.870     8.659
   137   6 C        2.924    -0.039    28.980     8.828
   138   6 C        2.924    -0.049    29.222     8.865
   139   6 C        2.917    -0.036    28.884     8.813
   140   6 C        2.916    -0.039    28.974     8.827
   141   6 C        2.919    -0.036    28.892     8.814
   142   1 H        0.980    -0.015     3.320     2.847
   143   1 H        0.980    -0.009     3.210     2.800
   144   1 H        0.980     0.002     3.014     2.713
   145   1 H        0.980     0.003     3.004     2.708
   146   1 H        0.980    -0.015     3.316     2.846
   147   1 H        0.980    -0.014     3.307     2.842
   148   1 H        0.980     0.015     2.809     2.619
   149   1 H        0.980     0.002     3.021     2.716
   150   1 H        0.980    -0.007     3.166     2.780
   151   1 H        0.860     0.168     1.285     1.776
   152   1 H        0.860     0.152     1.388     1.845
   153   1 H        0.927     0.031     2.566     2.505
   154   1 H        0.927     0.071     2.077     2.254
   155   1 H        0.861     0.200     1.106     1.647
   156   1 H        0.927     0.066     2.130     2.282
   157   1 H        0.927     0.068     2.106     2.270
   158   1 H        0.927     0.056     2.242     2.342
   159   1 H        0.929     0.014     2.826     2.629
   160   1 H        0.929     0.025     2.660     2.550
   161   1 H        0.929     0.042     2.420     2.433
   162   1 H        0.929     0.029     2.605     2.524
   163   1 H        0.929     0.037     2.489     2.467
   164   1 H        0.861     0.223     0.997     1.564
   165   1 H        0.927     0.076     2.023     2.224
   166   1 H        0.926     0.052     2.298     2.370
   167   1 H        0.927     0.061     2.187     2.313
   168   1 H        0.927     0.064     2.151     2.294
   169   1 H        0.927     0.055     2.264     2.353
   170   1 H        0.861     0.206     1.074     1.624
   171   1 H        0.927     0.092     1.857     2.131
   172   1 H        0.926     0.062     2.179     2.308
   173   1 H        0.927     0.063     2.166     2.302
   174   1 H        0.927     0.065     2.137     2.286
   175   1 H        0.927     0.059     2.216     2.328
   176   1 H        0.927     0.068     2.110     2.272
   177   1 H        0.927     0.057     2.232     2.336
   178   1 H        0.927     0.051     2.305     2.374
   179   1 H        0.861     0.233     0.953     1.529
   180   1 H        0.927     0.089     1.892     2.151
   181   1 H        0.929     0.072     2.063     2.246
   182   1 H        0.927     0.063     2.170     2.303
   183   1 H        0.927     0.066     2.126     2.280
   184   1 H        0.927     0.038     2.482     2.463
   185   1 H        0.927     0.034     2.534     2.489
   186   1 H        0.927     0.031     2.570     2.507
   187   1 H        0.927     0.049     2.334     2.389
   188   1 H        0.926     0.043     2.413     2.429
   189   1 H        0.927     0.045     2.387     2.416
   190   1 H        0.927     0.038     2.470     2.458
   191   1 H        0.860     0.151     1.393     1.849
   192   1 H        0.860     0.161     1.330     1.806
   193   1 H        0.927     0.039     2.462     2.453
   194   1 H        0.929     0.067     2.115     2.274
   195   1 H        0.927     0.051     2.302     2.373
   196   1 H        0.927     0.046     2.369     2.407
   197   1 H        0.926     0.053     2.281     2.362
   198   1 H        0.926     0.043     2.413     2.429
   199   1 H        0.927     0.040     2.450     2.448
   200   1 H        0.927     0.048     2.342     2.393
   201   1 H        0.927     0.034     2.534     2.489
   202   1 H        0.926     0.038     2.476     2.461
   203   1 H        0.927     0.038     2.474     2.460
   204   1 H        0.860     0.161     1.326     1.804
   205   1 H        0.860     0.167     1.293     1.781
   206   1 H        0.926     0.066     2.130     2.282
   207   1 H        0.929     0.067     2.113     2.273
   208   1 H        0.927     0.053     2.288     2.366
   209   1 H        0.927     0.066     2.127     2.281
   210   1 H        0.860     0.153     1.379     1.840
   211   1 H        0.860     0.163     1.315     1.797
   212   1 H        0.927     0.010     2.885     2.656
   213   1 H        0.927     0.066     2.130     2.282
   214   1 H        0.927     0.051     2.312     2.378
   215   1 H        0.929     0.019     2.740     2.589
   216   1 H        0.929     0.028     2.608     2.525
   217   1 H        0.929     0.053     2.283     2.363
   218   1 H        0.929     0.036     2.509     2.477
   219   1 H        0.929     0.039     2.465     2.455
   220   1 H        0.861     0.225     0.989     1.558
   221   1 H        0.926     0.077     2.007     2.216
   222   1 H        0.927     0.044     2.394     2.420
   223   1 H        0.927     0.045     2.380     2.412
   224   1 H        0.927     0.035     2.515     2.480
   225   1 H        0.927     0.052     2.295     2.369
   226   1 H        0.927     0.047     2.362     2.403
   227   1 H        0.926     0.051     2.309     2.376
   228   1 H        0.926     0.043     2.405     2.425
   229   1 H        0.861     0.232     0.957     1.532
   230   1 H        0.926     0.092     1.856     2.130
   231   1 H        0.927     0.079     1.985     2.203
   232   1 H        0.926     0.082     1.960     2.189
   233   1 H        0.929     0.051     2.313     2.378
   234   1 H        0.861     0.228     0.975     1.547
   235   1 H        0.926     0.070     2.090     2.261
   236   1 H        0.927     0.061     2.192     2.315
   237   1 H        0.927     0.067     2.123     2.279
   238   1 H        0.927     0.059     2.213     2.327
   239   1 H        0.927     0.064     2.151     2.293
   240   1 H        0.927     0.093     1.847     2.125
   241   1 H        0.926     0.062     2.178     2.308
   242   1 H        0.927     0.117     1.637     2.001
   243   1 H        0.927     0.118     1.627     1.994
   244   1 H        0.861     0.214     1.038     1.596
   245   1 H        0.927     0.105     1.736     2.060
   246   1 H        0.929     0.082     1.958     2.188
   247   1 H        0.927     0.078     2.000     2.212
   248   1 H        0.804     0.331     0.634     1.251
   249   1 H        0.927     0.058     2.218     2.329
   250   1 H        0.927     0.058     2.220     2.330
   251   1 H        0.927     0.079     1.992     2.207
   252   1 H        0.860     0.151     1.391     1.848
   253   1 H        0.860     0.162     1.324     1.803
   254   1 H        0.927     0.015     2.814     2.623
   255   1 H        0.927     0.064     2.151     2.294
   256   1 H        0.926     0.063     2.167     2.302
   257   1 H        0.929     0.046     2.372     2.408
   258   1 H        0.929     0.052     2.300     2.371
   259   1 H        0.929     0.043     2.407     2.426
   260   1 H        0.929     0.059     2.215     2.327
   261   1 H        0.922     0.347     0.586     1.197
   262   1 H        0.861     0.213     1.042     1.599
   263   1 H        0.927     0.074     2.044     2.236
   264   1 H        0.927     0.046     2.370     2.407
   265   1 H        0.927     0.048     2.349     2.397
   266   1 H        0.927     0.034     2.529     2.487
   267   1 H        0.927     0.054     2.274     2.358
   268   1 H        0.927     0.050     2.314     2.379
   269   1 H        0.927     0.050     2.314     2.379
   270   1 H        0.927     0.039     2.458     2.451
   271   1 H        0.861     0.214     1.036     1.595
   272   1 H        0.927     0.092     1.860     2.132
   273   1 H        0.927     0.056     2.245     2.343
   274   1 H        0.927     0.070     2.090     2.261
   275   1 H        0.927     0.052     2.300     2.372
   276   1 H        0.861     0.235     0.946     1.523
   277   1 H        0.927     0.102     1.769     2.080
   278   1 H        0.929     0.081     1.967     2.193
   279   1 H        0.927     0.085     1.931     2.173
   280   1 H        0.927     0.069     2.099     2.266
   281   1 H        0.929     0.039     2.461     2.453
   282   1 H        0.929     0.038     2.471     2.458
   283   1 H        0.929     0.042     2.417     2.431
   284   1 H        0.929     0.043     2.403     2.424
   285   1 H        0.929     0.039     2.459     2.452
   286   1 H        0.980     0.013     2.827     2.627
   287   1 H        0.980     0.009     2.896     2.659
   288   1 H        0.980     0.000     3.041     2.725
   289   1 H        0.980    -0.002     3.085     2.745
   290   1 H        0.980     0.016     2.782     2.607
   291   1 H        0.980     0.019     2.736     2.585
   292   1 H        0.980    -0.021     3.435     2.896
   293   1 H        0.980    -0.015     3.317     2.846
   294   1 H        0.980     0.028     2.602     2.521
   295   1 H        0.860     0.283     0.767     1.372
   296   1 H        0.860     0.304     0.702     1.312
   297   1 H        0.860     0.297     0.722     1.331
   298   1 H        0.973     0.237     0.925     1.503

 Mol. C6AA /au·bohr⁶  :     852329.460264
 Mol. C8AA /au·bohr⁸  :   19253043.597983
 Mol. α(0) /au        :       1404.542274


Wiberg/Mayer (AO) data.
largest (>0.10) Wiberg bond orders for each atom

 ---------------------------------------------------------------------------
     #   Z sym  total        # sym  WBO       # sym  WBO       # sym  WBO
 ---------------------------------------------------------------------------
     1   7 N    2.982 --     2 C    1.015   152 H    0.963   151 H    0.958
     2   6 C    3.987 --     1 N    1.015   154 H    0.974   153 H    0.963
                             3 C    0.959
     3   6 C    3.946 --     4 O    1.629     5 N    1.304     2 C    0.959
     4   8 O    1.937 --     3 C    1.629     5 N    0.196
     5   7 N    3.473 --     3 C    1.304     6 C    0.977   155 H    0.929
                             4 O    0.196
     6   6 C    3.954 --     5 N    0.977     9 C    0.960   156 H    0.951
                             7 C    0.936
     7   6 C    3.950 --     8 O    1.626    19 N    1.314     6 C    0.936
     8   8 O    1.935 --     7 C    1.626    19 N    0.198
     9   6 C    3.983 --    10 C    1.018   158 H    0.973     6 C    0.960
                           157 H    0.952
    10   6 C    3.738 --    11 C    1.446    12 C    1.169     9 C    1.018
    11   6 C    3.967 --    10 C    1.446    13 N    1.369   159 H    0.972
    12   6 C    3.959 --    15 C    1.369    14 C    1.231    10 C    1.169
    13   7 N    2.731 --    11 C    1.369    14 C    1.232
    14   6 C    3.966 --    16 C    1.333    13 N    1.232    12 C    1.231
    15   6 C    3.922 --    17 C    1.432    12 C    1.369   160 H    0.970
    16   6 C    3.916 --    18 C    1.455    14 C    1.333   161 H    0.971
    17   6 C    3.938 --    15 C    1.432    18 C    1.394   162 H    0.974
    18   6 C    3.956 --    16 C    1.455    17 C    1.394   163 H    0.967
    19   7 N    3.486 --     7 C    1.314    20 C    0.983   164 H    0.910
                             8 O    0.198
    20   6 C    3.962 --    19 N    0.983    23 C    0.964   165 H    0.955
                            21 C    0.943
    21   6 C    3.947 --    22 O    1.601    28 N    1.322    20 C    0.943
    22   8 O    1.945 --    21 C    1.601    28 N    0.192
    23   6 C    3.985 --    24 C    1.003   166 H    0.976   167 H    0.974
                            20 C    0.964
    24   6 C    3.880 --    23 C    1.003   168 H    0.966   169 H    0.960
                            25 C    0.884
    25   6 C    3.913 --    26 O    1.516    27 O    1.490    24 C    0.884
    26   8 O    1.782 --    25 C    1.516    27 O    0.220
    27   8 O    1.758 --    25 C    1.490    26 O    0.220
    28   7 N    3.485 --    21 C    1.322    29 C    0.976   170 H    0.927
                            22 O    0.192
    29   6 C    3.959 --    28 N    0.976    32 C    0.970   171 H    0.945
                            30 C    0.941
    30   6 C    3.954 --    31 O    1.623    36 N    1.320    29 C    0.941
    31   8 O    1.938 --    30 C    1.623    36 N    0.202
    32   6 C    3.991 --    33 C    1.004    29 C    0.970   172 H    0.969
                           173 H    0.964
    33   6 C    3.980 --    32 C    1.004    34 S    0.991   175 H    0.974
                           174 H    0.957
    34  16 S    2.087 --    35 C    1.012    33 C    0.991
    35   6 C    3.978 --    34 S    1.012   177 H    0.984   176 H    0.978
                           178 H    0.974
    36   7 N    3.484 --    30 C    1.320    37 C    0.979   179 H    0.897
                            31 O    0.202
    37   6 C    3.967 --    38 C    0.987    36 N    0.979   180 H    0.947
                            40 C    0.947
    38   6 C    3.911 --    39 O    1.910    37 C    0.987   181 H    0.948
    39   8 O    2.064 --    38 C    1.910
    40   6 C    3.983 --    41 C    0.986   183 H    0.972   182 H    0.971
                            37 C    0.947
    41   6 C    3.994 --    42 C    1.010    43 C    1.006    40 C    0.986
                           184 H    0.970
    42   6 C    3.995 --    41 C    1.010   186 H    0.985   185 H    0.984
                           187 H    0.984
    43   6 C    3.995 --    41 C    1.006   188 H    0.987   190 H    0.986
                           189 H    0.984
    44   7 N    2.986 --    45 C    1.013   191 H    0.964   192 H    0.956
    45   6 C    3.984 --    44 N    1.013    46 C    0.992   193 H    0.945
                            48 C    0.934
    46   6 C    3.898 --    47 O    1.887    45 C    0.992   194 H    0.949
    47   8 O    2.035 --    46 C    1.887
    48   6 C    3.986 --    50 C    1.009    49 C    0.991    45 C    0.934
                           195 H    0.926
    49   6 C    3.994 --    51 C    1.014    48 C    0.991   196 H    0.979
                           197 H    0.975
    50   6 C    3.992 --    48 C    1.009   198 H    0.983   199 H    0.982
                           200 H    0.976
    51   6 C    3.995 --    49 C    1.014   202 H    0.987   203 H    0.984
                           201 H    0.977
    52   7 N    2.984 --    53 C    1.011   204 H    0.959   205 H    0.957
    53   6 C    3.983 --    52 N    1.011    54 C    0.991    56 C    0.977
                           206 H    0.921
    54   6 C    3.905 --    55 O    1.895    53 C    0.991   207 H    0.948
    55   8 O    2.047 --    54 C    1.895
    56   6 C    3.893 --    53 C    0.977   208 H    0.965   209 H    0.956
                            57 C    0.889
    57   6 C    3.922 --    58 O    1.506    59 O    1.505    56 C    0.889
    58   8 O    1.784 --    57 C    1.506    59 O    0.223
    59   8 O    1.777 --    57 C    1.505    58 O    0.223
    60   7 N    2.999 --    61 C    1.009   210 H    0.960   211 H    0.956
    61   6 C    3.967 --    60 N    1.009   212 H    0.961    64 C    0.957
                            62 C    0.944
    62   6 C    3.947 --    63 O    1.611    74 N    1.319    61 C    0.944
    63   8 O    1.946 --    62 C    1.611    74 N    0.196
    64   6 C    3.985 --    65 C    1.022   214 H    0.967   213 H    0.962
                            61 C    0.957
    65   6 C    3.714 --    66 C    1.420    67 C    1.170    64 C    1.022
    66   6 C    3.963 --    65 C    1.420    68 N    1.394   215 H    0.971
    67   6 C    3.962 --    70 C    1.369    69 C    1.232    65 C    1.170
    68   7 N    2.741 --    66 C    1.394    69 C    1.216
    69   6 C    3.961 --    71 C    1.344    67 C    1.232    68 N    1.216
    70   6 C    3.915 --    72 C    1.429    67 C    1.369   216 H    0.972
    71   6 C    3.917 --    73 C    1.446    69 C    1.344   217 H    0.969
    72   6 C    3.945 --    70 C    1.429    73 C    1.403   218 H    0.975
    73   6 C    3.945 --    71 C    1.446    72 C    1.403   219 H    0.974
    74   7 N    3.485 --    62 C    1.319    75 C    0.974   220 H    0.897
                            63 O    0.196
    75   6 C    3.962 --    74 N    0.974    78 C    0.958   221 H    0.954
                            76 C    0.944
    76   6 C    3.948 --    77 O    1.579    81 N    1.342    75 C    0.944
    77   8 O    1.944 --    76 C    1.579    81 N    0.196
    78   6 C    3.990 --    79 C    1.008    80 C    1.007   222 H    0.968
                            75 C    0.958
    79   6 C    3.994 --    78 C    1.008   224 H    0.983   225 H    0.982
                           223 H    0.979
    80   6 C    3.994 --    78 C    1.007   228 H    0.984   227 H    0.984
                           226 H    0.979
    81   7 N    3.500 --    76 C    1.342    82 C    0.985   229 H    0.894
                            77 O    0.196
    82   6 C    3.964 --    81 N    0.985    85 C    0.958    83 C    0.951
                           230 H    0.937
    83   6 C    3.952 --    84 O    1.623    91 N    1.309    82 C    0.951
    84   8 O    1.948 --    83 C    1.623    91 N    0.194
    85   6 C    3.988 --    86 C    1.013   232 H    0.958    82 C    0.958
                           231 H    0.954
    86   6 C    3.907 --    88 C    1.571    87 N    1.145    85 C    1.013
                            89 C    0.116
    87   7 N    3.512 --    89 C    1.306    86 C    1.145   298 H    0.791
    88   6 C    3.903 --    86 C    1.571    90 N    1.216   233 H    0.965
    89   6 C    3.213 --    90 N    1.703    87 N    1.306    86 C    0.116
    90   7 N    3.076 --    89 C    1.703    88 C    1.216
    91   7 N    3.466 --    83 C    1.309    92 C    0.976   234 H    0.901
                            84 O    0.194
    92   6 C    3.966 --    91 N    0.976    95 C    0.961    93 C    0.953
                           235 H    0.952
    93   6 C    3.950 --    94 O    1.632   100 N    1.295    92 C    0.953
    94   8 O    1.956 --    93 C    1.632   100 N    0.193
    95   6 C    3.987 --    96 C    1.002   236 H    0.976   237 H    0.971
                            92 C    0.961
    96   6 C    3.993 --    97 C    1.007    95 C    1.002   239 H    0.976
                           238 H    0.972
    97   6 C    3.985 --    98 C    1.011    96 C    1.007   241 H    0.965
                           240 H    0.961
    98   6 C    3.908 --    97 C    1.011   243 H    0.969   242 H    0.967
                            99 N    0.940
    99   7 N    3.659 --    98 C    0.940   297 H    0.901   296 H    0.894
                           295 H    0.893
   100   7 N    3.471 --    93 C    1.295   101 C    0.985   244 H    0.917
                            94 O    0.193
   101   6 C    3.966 --   102 C    0.991   100 N    0.985   245 H    0.931
                           104 C    0.927
   102   6 C    3.902 --   103 O    1.877   101 C    0.991   246 H    0.948
   103   8 O    2.044 --   102 C    1.877
   104   6 C    3.951 --   106 C    1.002   105 O    0.996   247 H    0.959
                           101 C    0.927
   105   8 O    1.948 --   104 C    0.996   248 H    0.873
   106   6 C    3.989 --   104 C    1.002   249 H    0.982   251 H    0.980
                           250 H    0.977
   107   7 N    2.988 --   108 C    1.011   252 H    0.963   253 H    0.958
   108   6 C    3.987 --   107 N    1.011   111 C    0.963   254 H    0.958
                           109 C    0.949
   109   6 C    3.949 --   110 O    1.630   119 N    1.303   108 C    0.949
   110   8 O    1.938 --   109 C    1.630   119 N    0.199
   111   6 C    3.992 --   112 C    1.009   255 H    0.974   108 C    0.963
                           256 H    0.962
   112   6 C    3.988 --   114 C    1.411   113 C    1.409   111 C    1.009
   113   6 C    3.992 --   115 C    1.448   112 C    1.409   257 H    0.966
                           116 C    0.109
   114   6 C    3.991 --   116 C    1.448   112 C    1.411   258 H    0.971
                           115 C    0.106
   115   6 C    3.989 --   113 C    1.448   117 C    1.373   259 H    0.967
                           114 C    0.106
   116   6 C    3.989 --   114 C    1.448   117 C    1.371   260 H    0.969
                           113 C    0.109
   117   6 C    3.934 --   115 C    1.373   116 C    1.371   118 O    1.057
   118   8 O    2.087 --   117 C    1.057   261 H    0.745
   119   7 N    3.480 --   109 C    1.303   120 C    0.981   262 H    0.913
                           110 O    0.199
   120   6 C    3.965 --   119 N    0.981   263 H    0.957   123 C    0.949
                           121 C    0.945
   121   6 C    3.949 --   122 O    1.601   126 N    1.326   120 C    0.945
   122   8 O    1.946 --   121 C    1.601   126 N    0.197
   123   6 C    3.990 --   124 C    1.008   125 C    1.007   264 H    0.970
                           120 C    0.949
   124   6 C    3.994 --   123 C    1.008   265 H    0.986   266 H    0.984
                           267 H    0.977
   125   6 C    3.994 --   123 C    1.007   268 H    0.986   270 H    0.986
                           269 H    0.984
   126   7 N    3.492 --   121 C    1.326   127 C    0.974   271 H    0.921
                           122 O    0.197
   127   6 C    3.960 --   130 C    0.980   126 N    0.974   128 C    0.950
                           272 H    0.944
   128   6 C    3.953 --   129 O    1.615   131 N    1.323   127 C    0.950
   129   8 O    1.929 --   128 C    1.615   131 N    0.200
   130   6 C    3.988 --   273 H    0.986   275 H    0.981   127 C    0.980
                           274 H    0.978
   131   7 N    3.484 --   128 C    1.323   132 C    0.988   276 H    0.884
                           129 O    0.200
   132   6 C    3.972 --   133 C    1.006   131 N    0.988   277 H    0.931
                           135 C    0.928
   133   6 C    3.900 --   134 O    1.867   132 C    1.006   278 H    0.948
   134   8 O    2.059 --   133 C    1.867
   135   6 C    3.984 --   136 C    1.012   280 H    0.968   279 H    0.963
                           132 C    0.928
   136   6 C    3.988 --   138 C    1.416   137 C    1.413   135 C    1.012
                           141 C    0.108
   137   6 C    3.994 --   139 C    1.445   136 C    1.413   281 H    0.972
                           140 C    0.111
   138   6 C    3.993 --   140 C    1.440   136 C    1.416   282 H    0.972
                           139 C    0.113
   139   6 C    3.993 --   137 C    1.445   141 C    1.435   283 H    0.967
                           138 C    0.113
   140   6 C    3.993 --   141 C    1.441   138 C    1.440   284 H    0.974
                           137 C    0.111
   141   6 C    3.992 --   140 C    1.441   139 C    1.435   285 H    0.973
                           136 C    0.108
   142   1 H    1.000 --   286 H    0.973
   143   1 H    1.000 --   287 H    0.991
   144   1 H    0.999 --   288 H    0.978
   145   1 H    1.000 --   289 H    0.965
   146   1 H    1.000 --   290 H    0.959
   147   1 H    1.000 --   291 H    0.929
   148   1 H    1.000 --   292 H    0.928
   149   1 H    1.000 --   293 H    0.954
   150   1 H    1.000 --   294 H    0.877
   151   1 H    0.972 --     1 N    0.958
   152   1 H    0.977 --     1 N    0.963
   153   1 H    0.999 --     2 C    0.963
   154   1 H    0.995 --     2 C    0.974
   155   1 H    0.959 --     5 N    0.929
   156   1 H    0.996 --     6 C    0.951
   157   1 H    0.984 --     9 C    0.952
   158   1 H    0.996 --     9 C    0.973
   159   1 H    0.999 --    11 C    0.972
   160   1 H    0.999 --    15 C    0.970
   161   1 H    0.998 --    16 C    0.971
   162   1 H    0.999 --    17 C    0.974
   163   1 H    0.998 --    18 C    0.967
   164   1 H    0.950 --    19 N    0.910
   165   1 H    0.994 --    20 C    0.955
   166   1 H    0.997 --    23 C    0.976
   167   1 H    0.995 --    23 C    0.974
   168   1 H    0.993 --    24 C    0.966
   169   1 H    0.994 --    24 C    0.960
   170   1 H    0.957 --    28 N    0.927
   171   1 H    0.991 --    29 C    0.945
   172   1 H    0.996 --    32 C    0.969
   173   1 H    0.996 --    32 C    0.964
   174   1 H    0.996 --    33 C    0.957
   175   1 H    0.996 --    33 C    0.974
   176   1 H    0.995 --    35 C    0.978
   177   1 H    0.997 --    35 C    0.984
   178   1 H    0.997 --    35 C    0.974
   179   1 H    0.946 --    36 N    0.897
   180   1 H    0.992 --    37 C    0.947
   181   1 H    0.994 --    38 C    0.948
   182   1 H    0.996 --    40 C    0.971
   183   1 H    0.996 --    40 C    0.972
   184   1 H    0.998 --    41 C    0.970
   185   1 H    0.999 --    42 C    0.984
   186   1 H    0.999 --    42 C    0.985
   187   1 H    0.997 --    42 C    0.984
   188   1 H    0.998 --    43 C    0.987
   189   1 H    0.997 --    43 C    0.984
   190   1 H    0.998 --    43 C    0.986
   191   1 H    0.977 --    44 N    0.964
   192   1 H    0.974 --    44 N    0.956
   193   1 H    0.998 --    45 C    0.945
   194   1 H    0.995 --    46 C    0.949
   195   1 H    0.997 --    48 C    0.926
   196   1 H    0.998 --    49 C    0.979
   197   1 H    0.997 --    49 C    0.975
   198   1 H    0.998 --    50 C    0.983
   199   1 H    0.998 --    50 C    0.982
   200   1 H    0.998 --    50 C    0.976
   201   1 H    0.999 --    51 C    0.977
   202   1 H    0.998 --    51 C    0.987
   203   1 H    0.999 --    51 C    0.984
   204   1 H    0.972 --    52 N    0.959
   205   1 H    0.972 --    52 N    0.957
   206   1 H    0.995 --    53 C    0.921
   207   1 H    0.995 --    54 C    0.948
   208   1 H    0.996 --    56 C    0.965
   209   1 H    0.994 --    56 C    0.956
   210   1 H    0.974 --    60 N    0.960
   211   1 H    0.973 --    60 N    0.956
   212   1 H    0.998 --    61 C    0.961
   213   1 H    0.987 --    64 C    0.962
   214   1 H    0.993 --    64 C    0.967
   215   1 H    0.999 --    66 C    0.971
   216   1 H    0.999 --    70 C    0.972
   217   1 H    0.997 --    71 C    0.969
   218   1 H    0.998 --    72 C    0.975
   219   1 H    0.998 --    73 C    0.974
   220   1 H    0.949 --    74 N    0.897
   221   1 H    0.994 --    75 C    0.954
   222   1 H    0.998 --    78 C    0.968
   223   1 H    0.998 --    79 C    0.979
   224   1 H    0.999 --    79 C    0.983
   225   1 H    0.997 --    79 C    0.982
   226   1 H    0.998 --    80 C    0.979
   227   1 H    0.997 --    80 C    0.984
   228   1 H    0.998 --    80 C    0.984
   229   1 H    0.946 --    81 N    0.894
   230   1 H    0.991 --    82 C    0.937
   231   1 H    0.993 --    85 C    0.954
   232   1 H    0.990 --    85 C    0.958
   233   1 H    0.997 --    88 C    0.965
   234   1 H    0.948 --    91 N    0.901
   235   1 H    0.995 --    92 C    0.952
   236   1 H    0.996 --    95 C    0.976
   237   1 H    0.995 --    95 C    0.971
   238   1 H    0.996 --    96 C    0.972
   239   1 H    0.996 --    96 C    0.976
   240   1 H    0.991 --    97 C    0.961
   241   1 H    0.996 --    97 C    0.965
   242   1 H    0.986 --    98 C    0.967
   243   1 H    0.986 --    98 C    0.969
   244   1 H    0.954 --   100 N    0.917
   245   1 H    0.989 --   101 C    0.931
   246   1 H    0.993 --   102 C    0.948
   247   1 H    0.994 --   104 C    0.959
   248   1 H    0.890 --   105 O    0.873
   249   1 H    0.997 --   106 C    0.982
   250   1 H    0.997 --   106 C    0.977
   251   1 H    0.994 --   106 C    0.980
   252   1 H    0.976 --   107 N    0.963
   253   1 H    0.973 --   107 N    0.958
   254   1 H    1.000 --   108 C    0.958
   255   1 H    0.996 --   111 C    0.974
   256   1 H    0.995 --   111 C    0.962
   257   1 H    0.998 --   113 C    0.966
   258   1 H    0.997 --   114 C    0.971
   259   1 H    0.998 --   115 C    0.967
   260   1 H    0.996 --   116 C    0.969
   261   1 H    0.880 --   118 O    0.745   298 H    0.103
   262   1 H    0.955 --   119 N    0.913
   263   1 H    0.994 --   120 C    0.957
   264   1 H    0.998 --   123 C    0.970
   265   1 H    0.998 --   124 C    0.986
   266   1 H    0.999 --   124 C    0.984
   267   1 H    0.996 --   124 C    0.977
   268   1 H    0.997 --   125 C    0.986
   269   1 H    0.997 --   125 C    0.984
   270   1 H    0.998 --   125 C    0.986
   271   1 H    0.954 --   126 N    0.921
   272   1 H    0.991 --   127 C    0.944
   273   1 H    0.997 --   130 C    0.986
   274   1 H    0.995 --   130 C    0.978
   275   1 H    0.997 --   130 C    0.981
   276   1 H    0.945 --   131 N    0.884
   277   1 H    0.989 --   132 C    0.931
   278   1 H    0.993 --   133 C    0.948
   279   1 H    0.993 --   135 C    0.963
   280   1 H    0.995 --   135 C    0.968
   281   1 H    0.998 --   137 C    0.972
   282   1 H    0.999 --   138 C    0.972
   283   1 H    0.998 --   139 C    0.967
   284   1 H    0.998 --   140 C    0.974
   285   1 H    0.998 --   141 C    0.973
   286   1 H    1.000 --   142 H    0.973
   287   1 H    1.000 --   143 H    0.991
   288   1 H    1.000 --   144 H    0.978
   289   1 H    1.000 --   145 H    0.965
   290   1 H    1.000 --   146 H    0.959
   291   1 H    1.000 --   147 H    0.929
   292   1 H    1.000 --   148 H    0.928
   293   1 H    1.000 --   149 H    0.954
   294   1 H    0.999 --   150 H    0.877
   295   1 H    0.920 --    99 N    0.893
   296   1 H    0.908 --    99 N    0.894
   297   1 H    0.912 --    99 N    0.901
   298   1 H    0.944 --    87 N    0.791   261 H    0.103
 ---------------------------------------------------------------------------

Topologies differ in total number of bonds
Writing topology from bond orders to xtbtopo.mol

molecular dipole:
                 x           y           z       tot (Debye)
 q only:       47.310     -12.226     -55.676
   full:       48.132     -11.475     -55.374     188.753
molecular quadrupole (traceless):
                xx          xy          yy          xz          yz          zz
 q only:     -621.429     855.865    2349.300    4147.834   -1004.728   -1727.871
  q+dip:     -720.315     797.446    2383.512    4204.161    -964.531   -1663.198
   full:     -725.119     790.450    2384.553    4203.199    -959.025   -1659.434


           -------------------------------------------------
          | TOTAL ENERGY             -441.259723082874 Eh   |
          | GRADIENT NORM               0.942525112586 Eh/α |
          | HOMO-LUMO GAP               0.020109418796 eV   |
           -------------------------------------------------
########################################################################
[WARNING] Runtime exception occurred
-3- restart_readRestart: Dimension missmatch in restart file.
-2- restart_readRestart: Multiplicity missmatch in restart file.
-1- restart_readRestart: Number of electron missmatch in restart file.
########################################################################

------------------------------------------------------------------------
 * finished run on 2025/05/05 at 16:38:48.634     
------------------------------------------------------------------------
 total:
 * wall-time:     0 d,  0 h,  0 min,  2.417 sec
 *  cpu-time:     0 d,  0 h,  1 min, 14.081 sec
 * ratio c/w:    30.647 speedup
 SCF:
 * wall-time:     0 d,  0 h,  0 min,  2.380 sec
 *  cpu-time:     0 d,  0 h,  1 min, 13.081 sec
 * ratio c/w:    30.705 speedup

