      -----------------------------------------------------------      
     |                   =====================                   |     
     |                           x T B                           |     
     |                   =====================                   |     
     |                         S. Grimme                         |     
     |          Mulliken Center for Theoretical Chemistry        |     
     |                    University of Bonn                     |     
      -----------------------------------------------------------      

   * xtb version 6.7.1 (edcfbbe) compiled by 'conda@afd1a870197c' on 2025-04-11

   xtb is free software: you can redistribute it and/or modify it under
   the terms of the GNU Lesser General Public License as published by
   the Free Software Foundation, either version 3 of the License, or
   (at your option) any later version.
   
   xtb is distributed in the hope that it will be useful,
   but WITHOUT ANY WARRANTY; without even the implied warranty of
   MERCHANTABILITY or FITNESS FOR A PARTICULAR PURPOSE.  See the
   GNU Lesser General Public License for more details.
   
   Cite this work as:
   * C. Bannwarth, E. Caldeweyher, S. Ehlert, A. Hansen, P. Pracht,
     J. Seibert, S. Spicher, S. Grimme, WIREs Comput. Mol. Sci., 2020, 11,
     e01493. DOI: 10.1002/wcms.1493
   
   for GFN2-xTB:
   * C. Bannwarth, S. Ehlert and S. Grimme., J. Chem. Theory Comput., 2019,
     15, 1652-1671. DOI: 10.1021/acs.jctc.8b01176
   for GFN1-xTB:
   * S. Grimme, C. Bannwarth, P. Shushkov, J. Chem. Theory Comput., 2017,
     13, 1989-2009. DOI: 10.1021/acs.jctc.7b00118
   for GFN0-xTB:
   * P. Pracht, E. Caldeweyher, S. Ehlert, S. Grimme, ChemRxiv, 2019, preprint.
     DOI: 10.26434/chemrxiv.8326202.v1
   for GFN-FF:
   * S. Spicher and S. Grimme, Angew. Chem. Int. Ed., 2020, 59, 15665-15673.
     DOI: 10.1002/anie.202004239
   
   for ALPB and GBSA implicit solvation:
   * S. Ehlert, M. Stahn, S. Spicher, S. Grimme, J. Chem. Theory Comput.,
     2021, 17, 4250-4261. DOI: 10.1021/acs.jctc.1c00471
   
   for ddCOSMO and CPCM-X implicit solvation:
   * M. Stahn, S. Ehlert, S. Grimme, J. Phys. Chem. A,
     2023, XX, XXXX-XXXX. DOI: 10.1021/acs.jpca.3c04382
   
   for DFT-D4:
   * E. Caldeweyher, C. Bannwarth and S. Grimme, J. Chem. Phys., 2017,
     147, 034112. DOI: 10.1063/1.4993215
   * E. Caldeweyher, S. Ehlert, A. Hansen, H. Neugebauer, S. Spicher,
     C. Bannwarth and S. Grimme, J. Chem. Phys., 2019, 150, 154122.
     DOI: 10.1063/1.5090222
   * E. Caldeweyher, J.-M. Mewes, S. Ehlert and S. Grimme, Phys. Chem. Chem. Phys.
     2020, 22, 8499-8512. DOI: 10.1039/D0CP00502A
   
   for sTDA-xTB:
   * S. Grimme and C. Bannwarth, J. Chem. Phys., 2016, 145, 054103.
     DOI: 10.1063/1.4959605
   
   in the mass-spec context:
   * V. Asgeirsson, C. Bauer and S. Grimme, Chem. Sci., 2017, 8, 4879.
     DOI: 10.1039/c7sc00601b
   * J. Koopman and S. Grimme, ACS Omega 2019, 4, 12, 15120-15133.
     DOI: 10.1021/acsomega.9b02011
   
   for metadynamics refer to:
   * S. Grimme, J. Chem. Theory Comput., 2019, 155, 2847-2862
     DOI: 10.1021/acs.jctc.9b00143
   
   for SPH calculations refer to:
   * S. Spicher and S. Grimme, J. Chem. Theory Comput., 2021, 17, 1701-1714
     DOI: 10.1021/acs.jctc.0c01306
   
   for ONIOM refer to:
   * C. Plett, A. Katbashev, S. Ehlert, S. Grimme, M. Bursch,
     Phys. Chem. Chem. Phys., 2023, 25, 17860-17868. DOI: 10.1039/D3CP02178E
   
   for DIPRO refer to:
   * J. Kohn, N. Gildemeister, S. Grimme, D. Fazzi, A. Hansen,
     J. Chem. Phys., 2023, just accepted.
   
   for PTB refer to:
   * S. Grimme, M. Mueller, A. Hansen, J. Chem. Phys., 2023, 158, 124111.
     DOI: 10.1063/5.0137838
   
   with help from (in alphabetical order)
   P. Atkinson, C. Bannwarth, F. Bohle, G. Brandenburg, E. Caldeweyher
   M. Checinski, S. Dohm, S. Ehlert, S. Ehrlich, I. Gerasimov, C. Hölzer
   A. Katbashev, J. Kohn, J. Koopman, C. Lavigne, S. Lehtola, F. März, M. Müller,
   F. Musil, H. Neugebauer, J. Pisarek, C. Plett, P. Pracht, F. Pultar,
   J. Seibert, P. Shushkov, S. Spicher, M. Stahn, M. Steiner, T. Strunk,
   J. Stückrath, T. Rose, and J. Unsleber
   
 * started run on 2025/05/05 at 17:16:04.000     
   ID    Z sym.   atoms
    1    7 N      1, 9, 16, 22, 25, 26, 34, 35, 43, 51, 58, 65, 74, 82, 90
    2    6 C      2, 3, 5, 6, 8, 10, 11, 13-15, 17, 18, 20, 21, 23, 24, 27,
                  28, 30-33, 36, 37, 39, 40, 42, 44, 45, 47-50, 52, 53,
                  55-57, 59, 60, 62-64, 66, 67, 69-71, 75, 76, 78-81, 83, 84,
                  86, 87, 91, 92, 94-100
    3    8 O      4, 12, 19, 29, 38, 46, 54, 61, 68, 72, 73, 77, 85, 88, 89,
                  93, 101
    4   16 S      7, 41
    5    1 H      102-270

           -------------------------------------------------
          |                Calculation Setup                |
           -------------------------------------------------

          program call               : xtb /tmp/tmp3877e9dx/HID/input.xyz --alpb ether --chrg -1 --input /tmp/tmp3877e9dx/HID/constraints.inp --gfn 2
          hostname                   : fedora
          coordinate file            : /tmp/tmp3877e9dx/HID/input.xyz
          omp threads                :                    32


molecular fragmentation (1/2 indicates fragments):
111111111111111111111111111111111111111111222222222222222222222222222222
222222222222222222222222222222222222222222222222222222221111111111111111
111111111111111111111111112222222222222222222222222222222222222222222222
222222222222222222222222222222222222222222222222221111
# atoms in fragment 1/2:    88   182
 fragment masses (1/2) :      626.84      894.45
CMA distance (Bohr)    :  10.800
constraining FC (au)   :  0.0500

           -------------------------------------------------
          |                 G F N 2 - x T B                 |
           -------------------------------------------------

        Reference                      10.1021/acs.jctc.8b01176
      * Hamiltonian:
        H0-scaling (s, p, d)           1.850000    2.230000    2.230000
        zeta-weighting                 0.500000
      * Dispersion:
        s8                             2.700000
        a1                             0.520000
        a2                             5.000000
        s9                             5.000000
      * Repulsion:
        kExp                           1.500000    1.000000
        rExp                           1.000000
      * Coulomb:
        alpha                          2.000000
        third order                    shell-resolved
        anisotropic                    true
        a3                             3.000000
        a5                             4.000000
        cn-shift                       1.200000
        cn-exp                         4.000000
        max-rad                        5.000000

      * Solvation model:               ALPB
        Solvent                        ether
        Parameter file                 internal GFN2-xTB/ALPB
        Dielectric constant                4.3300E+00
        Reference state                gsolv [1 M gas/solution]
        Free energy shift                  4.9534E-03 Eh       3.1083E+00 kcal/mol
        Temperature                        2.9815E+02 K
        Density                            7.1300E-01 kg/L
        Solvent mass                       7.4120E+01 g/mol
        Interaction kernel             P16
        Born radius scaling (c1)           1.5847E+00
        Born radii integrator          GBOBC
        Born offset                        0.0000E+00 a0       0.0000E+00 AA
        H-bond correction              true
        Ion screening                  false
        Surface tension                    1.0000E-05 Eh       1.5569E+01 dyn/cm
        Grid points                               230 per atom

          ...................................................
          :                      SETUP                      :
          :.................................................:
          :  # basis functions                 585          :
          :  # atomic orbitals                 583          :
          :  # shells                          373          :
          :  # electrons                       627          :
          :  max. iterations                   250          :
          :  Hamiltonian                  GFN2-xTB          :
          :  restarted?                      false          :
          :  GBSA solvation                   true          :
          :  PC potential                    false          :
          :  electronic temp.          300.0000000     K    :
          :  accuracy                    1.0000000          :
          :  -> integral cutoff          0.2500000E+02      :
          :  -> integral neglect         0.1000000E-07      :
          :  -> SCF convergence          0.1000000E-05 Eh   :
          :  -> wf. convergence          0.1000000E-03 e    :
          :  Broyden damping             0.4000000          :
          :  net charge                         -1          :
          :  unpaired electrons                  0          :
          ...................................................

 iter      E             dE          RMSdq      gap      omega  full diag
   1   -352.3402837 -0.352340E+03  0.422E+00    2.43       0.0  T
   2   -351.7216076  0.618676E+00  0.278E+00    0.01       1.0  T
   3   -351.9372481 -0.215640E+00  0.236E+00    0.37       1.0  T
   4   -353.4065582 -0.146931E+01  0.122E+00    1.52       1.0  T
   5   -353.4838765 -0.773183E-01  0.793E-01    1.21       1.0  T
   6   -353.5801625 -0.962861E-01  0.564E-01    0.59       1.0  T
   7   -353.6060369 -0.258744E-01  0.362E-01    1.17       1.0  T
   8   -353.6094519 -0.341499E-02  0.323E-01    0.74       1.0  T
   9   -353.5713811  0.380708E-01  0.357E-01    1.02       1.0  T
  10   -353.6235880 -0.522069E-01  0.183E-01    0.67       1.0  T
  11   -353.6247651 -0.117717E-02  0.159E-01    0.70       1.0  T
  12   -353.6276556 -0.289052E-02  0.124E-01    0.77       1.0  T
  13   -353.6339656 -0.630996E-02  0.317E-02    0.85       1.0  T
  14   -353.6335802  0.385385E-03  0.412E-02    0.84       1.0  T
  15   -353.6342832 -0.702953E-03  0.154E-02    0.84       1.0  T
  16   -353.6343693 -0.861589E-04  0.494E-03    0.85       1.2  T
  17   -353.6343690  0.322859E-06  0.446E-03    0.85       1.4  T
  18   -353.6343609  0.806125E-05  0.634E-03    0.85       1.0  T
  19   -353.6343614 -0.420491E-06  0.617E-03    0.85       1.0  T
  20   -353.6343788 -0.174012E-04  0.614E-04    0.85       9.9  T
  21   -353.6343780  0.805880E-06  0.146E-03    0.85       4.2  T
  22   -353.6343789 -0.973990E-06  0.612E-05    0.85      99.5  T
  23   -353.6343789 -0.122515E-08  0.357E-05    0.85     170.5  T

   *** convergence criteria satisfied after 23 iterations ***

         #    Occupation            Energy/Eh            Energy/eV
      -------------------------------------------------------------
         1        2.0000           -0.7243836             -19.7115
       ...           ...                  ...                  ...
       308        2.0000           -0.3436325              -9.3507
       309        2.0000           -0.3415226              -9.2933
       310        2.0000           -0.3375636              -9.1856
       311        1.9983           -0.3289743              -8.9518
       312        1.8976           -0.3250017              -8.8437
       313        1.8933           -0.3249577              -8.8425
       314        1.2109           -0.3216856              -8.7535 (HOMO)
       315                         -0.2905306              -7.9057 (LUMO)
       316                         -0.2839171              -7.7258
       317                         -0.2771721              -7.5422
       318                         -0.2727879              -7.4229
       319                         -0.2648667              -7.2074
       ...                                ...                  ...
       583                          1.1415700              31.0637
      -------------------------------------------------------------
                  HL-Gap            0.0311550 Eh            0.8478 eV
             Fermi-level           -0.3145094 Eh           -8.5582 eV

 SCC (total)                   0 d,  0 h,  0 min,  1.308 sec
 SCC setup                      ...        0 min,  0.004 sec (  0.327%)
 Dispersion                     ...        0 min,  0.012 sec (  0.948%)
 classical contributions        ...        0 min,  0.001 sec (  0.040%)
 integral evaluation            ...        0 min,  0.025 sec (  1.945%)
 iterations                     ...        0 min,  1.168 sec ( 89.332%)
 molecular gradient             ...        0 min,  0.089 sec (  6.836%)
 printout                       ...        0 min,  0.007 sec (  0.570%)

         :::::::::::::::::::::::::::::::::::::::::::::::::::::
         ::                     SUMMARY                     ::
         :::::::::::::::::::::::::::::::::::::::::::::::::::::
         :: total energy            -346.953881876661 Eh    ::
         :: total w/o Gsasa/hb      -346.855285007040 Eh    ::
         :: gradient norm              1.491165688289 Eh/a0 ::
         :: HOMO-LUMO gap              0.847771716136 eV    ::
         ::.................................................::
         :: SCC energy              -353.610352216607 Eh    ::
         :: -> isotropic ES            0.968077285816 Eh    ::
         :: -> anisotropic ES          0.133641803873 Eh    ::
         :: -> anisotropic XC          0.286521228124 Eh    ::
         :: -> dispersion             -0.295578640969 Eh    ::
         :: -> Gsolv                  -0.280114160008 Eh    ::
         ::    -> Gelec               -0.181517290387 Eh    ::
         ::    -> Gsasa               -0.085125467712 Eh    ::
         ::    -> Ghb                 -0.018424839486 Eh    ::
         ::    -> Gshift               0.004953437577 Eh    ::
         :: repulsion energy           6.656470339947 Eh    ::
         :: add. restraining           0.000000000000 Eh    ::
         :: total charge              -0.999999999987 e     ::
         :::::::::::::::::::::::::::::::::::::::::::::::::::::

           -------------------------------------------------
          |                Property Printout                |
           -------------------------------------------------

    * Orbital Energies and Occupations

         #    Occupation            Energy/Eh            Energy/eV
      -------------------------------------------------------------
         1        2.0000           -0.7243836             -19.7115
       ...           ...                  ...                  ...
       302        2.0000           -0.3547943              -9.6544
       303        2.0000           -0.3532858              -9.6134
       304        2.0000           -0.3506422              -9.5415
       305        2.0000           -0.3506263              -9.5410
       306        2.0000           -0.3495678              -9.5122
       307        2.0000           -0.3467096              -9.4344
       308        2.0000           -0.3436325              -9.3507
       309        2.0000           -0.3415226              -9.2933
       310        2.0000           -0.3375636              -9.1856
       311        1.9983           -0.3289743              -8.9518
       312        1.8976           -0.3250017              -8.8437
       313        1.8933           -0.3249577              -8.8425
       314        1.2109           -0.3216856              -8.7535 (HOMO)
       315                         -0.2905306              -7.9057 (LUMO)
       316                         -0.2839171              -7.7258
       317                         -0.2771721              -7.5422
       318                         -0.2727879              -7.4229
       319                         -0.2648667              -7.2074
       320                         -0.2458710              -6.6905
       321                         -0.2262051              -6.1554
       322                         -0.2069208              -5.6306
       323                         -0.2049607              -5.5773
       324                         -0.2008113              -5.4644
       325                         -0.1949863              -5.3058
       ...                                ...                  ...
       583                          1.1415700              31.0637
      -------------------------------------------------------------
                  HL-Gap            0.0311550 Eh            0.8478 eV
             Fermi-level           -0.3145094 Eh           -8.5582 eV

     #   Z          covCN         q      C6AA      α(0)
     1   7 N        2.632    -0.367    29.484     8.064
     2   6 C        3.782     0.042    19.881     6.352
     3   6 C        2.751     0.254    22.736     7.808
     4   8 O        0.858    -0.480    23.349     6.479
     5   6 C        3.822    -0.064    21.710     6.631
     6   6 C        3.794    -0.005    20.682     6.476
     7  16 S        1.962    -0.240   151.358    20.707
     8   6 C        3.750    -0.053    21.597     6.628
     9   7 N        2.749    -0.109    23.387     7.182
    10   6 C        3.818     0.020    20.224     6.400
    11   6 C        2.756     0.279    22.284     7.730
    12   8 O        0.859    -0.511    24.039     6.574
    13   6 C        3.833    -0.062    21.658     6.621
    14   6 C        3.835    -0.064    21.705     6.628
    15   6 C        3.762    -0.004    20.699     6.485
    16   7 N        2.693    -0.151    24.269     7.317
    17   6 C        3.799     0.027    20.116     6.386
    18   6 C        2.758     0.267    22.487     7.765
    19   8 O        0.858    -0.507    23.942     6.560
    20   6 C        3.808    -0.075    21.928     6.666
    21   6 C        3.087     0.009    27.721     8.631
    22   7 N        2.848    -0.083    22.860     7.101
    23   6 C        3.062    -0.008    28.155     8.701
    24   6 C        2.111    -0.029    31.609     9.085
    25   7 N        1.980    -0.281    28.109     7.863
    26   7 N        2.686    -0.162    24.499     7.351
    27   6 C        3.796     0.019    20.268     6.411
    28   6 C        2.756     0.269    22.463     7.761
    29   8 O        0.858    -0.472    23.163     6.453
    30   6 C        3.811    -0.071    21.840     6.652
    31   6 C        3.805    -0.068    21.794     6.646
    32   6 C        3.808    -0.086    22.139     6.698
    33   6 C        3.735    -0.047    21.496     6.617
    34   7 N        3.487    -0.161    24.463     7.346
    35   7 N        2.688    -0.172    24.721     7.384
    36   6 C        3.793     0.027    20.130     6.389
    37   6 C        2.762     0.196    23.822     7.993
    38   8 O        0.856    -0.340    20.513     6.072
    39   6 C        3.830    -0.063    21.679     6.625
    40   6 C        3.799    -0.009    20.748     6.486
    41  16 S        1.967    -0.230   150.905    20.676
    42   6 C        3.751    -0.060    21.723     6.647
    43   7 N        2.633    -0.361    29.300     8.039
    44   6 C        3.784     0.037    19.967     6.365
    45   6 C        2.768     0.198    23.788     7.988
    46   8 O        0.856    -0.367    21.039     6.150
    47   6 C        3.818    -0.074    21.891     6.659
    48   6 C        3.852    -0.009    20.702     6.471
    49   6 C        3.764    -0.111    22.674     6.787
    50   6 C        3.762    -0.120    22.849     6.814
    51   7 N        2.639    -0.355    29.158     8.020
    52   6 C        3.794     0.035    19.998     6.368
    53   6 C        2.774     0.209    23.576     7.952
    54   8 O        0.856    -0.362    20.943     6.136
    55   6 C        3.862    -0.017    20.829     6.490
    56   6 C        3.764    -0.122    22.885     6.819
    57   6 C        3.765    -0.115    22.745     6.798
    58   7 N        2.636    -0.363    29.358     8.047
    59   6 C        3.791     0.033    20.031     6.374
    60   6 C        2.772     0.206    23.623     7.960
    61   8 O        0.856    -0.361    20.923     6.133
    62   6 C        3.858    -0.018    20.856     6.495
    63   6 C        3.763    -0.116    22.759     6.800
    64   6 C        3.763    -0.112    22.690     6.790
    65   7 N        2.629    -0.368    29.485     8.065
    66   6 C        3.786     0.027    20.128     6.390
    67   6 C        2.754     0.272    22.411     7.752
    68   8 O        0.858    -0.507    23.941     6.560
    69   6 C        3.806    -0.051    21.490     6.599
    70   6 C        3.804    -0.085    22.125     6.697
    71   6 C        2.687     0.364    20.830     7.469
    72   8 O        0.856    -0.616    26.527     6.905
    73   8 O        0.857    -0.622    26.671     6.924
    74   7 N        2.688    -0.162    24.495     7.351
    75   6 C        3.797     0.024    20.170     6.395
    76   6 C        2.757     0.273    22.392     7.749
    77   8 O        0.858    -0.506    23.911     6.556
    78   6 C        3.815    -0.084    22.095     6.690
    79   6 C        3.852    -0.011    20.744     6.478
    80   6 C        3.765    -0.120    22.848     6.813
    81   6 C        3.762    -0.110    22.650     6.784
    82   7 N        2.689    -0.197    25.276     7.467
    83   6 C        3.792     0.044    19.847     6.344
    84   6 C        2.761     0.181    24.117     8.042
    85   8 O        0.856    -0.382    21.323     6.191
    86   6 C        3.806    -0.089    22.198     6.707
    87   6 C        2.685     0.362    20.852     7.473
    88   8 O        0.856    -0.579    25.609     6.785
    89   8 O        0.857    -0.602    26.165     6.858
    90   7 N        2.630    -0.354    29.121     8.015
    91   6 C        3.785     0.045    19.838     6.344
    92   6 C        2.769     0.192    23.891     8.005
    93   8 O        0.856    -0.356    20.822     6.118
    94   6 C        3.819    -0.073    21.874     6.656
    95   6 C        2.964    -0.010    28.270     8.721
    96   6 C        2.923    -0.056    29.390     8.890
    97   6 C        2.927    -0.054    29.345     8.884
    98   6 C        2.914    -0.082    30.061     8.991
    99   6 C        2.916    -0.056    29.381     8.888
   100   6 C        2.849     0.152    24.705     8.146
   101   8 O        1.661    -0.420    21.241     6.222
   102   1 H        0.980    -0.001     3.063     2.735
   103   1 H        0.980    -0.003     3.093     2.748
   104   1 H        0.980    -0.001     3.060     2.733
   105   1 H        0.980    -0.000     3.051     2.729
   106   1 H        0.980    -0.006     3.150     2.774
   107   1 H        0.980    -0.009     3.203     2.796
   108   1 H        0.980     0.016     2.785     2.608
   109   1 H        0.980     0.011     2.869     2.647
   110   1 H        0.980     0.012     2.845     2.636
   111   1 H        0.980    -0.019     3.404     2.883
   112   1 H        0.980    -0.000     3.051     2.730
   113   1 H        0.980     0.049     2.330     2.385
   114   1 H        0.980     0.012     2.846     2.636
   115   1 H        0.980     0.010     2.877     2.650
   116   1 H        0.980    -0.009     3.216     2.802
   117   1 H        0.980     0.028     2.613     2.526
   118   1 H        0.980     0.009     2.895     2.659
   119   1 H        0.980     0.003     2.989     2.702
   120   1 H        0.980     0.002     3.009     2.710
   121   1 H        0.980     0.011     2.870     2.647
   122   1 H        0.980    -0.012     3.261     2.822
   123   1 H        0.980    -0.011     3.242     2.814
   124   1 H        0.980     0.027     2.621     2.530
   125   1 H        0.980    -0.008     3.186     2.789
   126   1 H        0.980     0.020     2.732     2.583
   127   1 H        0.980    -0.004     3.119     2.760
   128   1 H        0.980    -0.009     3.202     2.796
   129   1 H        0.860     0.154     1.374     1.837
   130   1 H        0.860     0.165     1.302     1.787
   131   1 H        0.927     0.010     2.885     2.656
   132   1 H        0.927     0.066     2.134     2.284
   133   1 H        0.926     0.047     2.355     2.399
   134   1 H        0.927     0.066     2.134     2.284
   135   1 H        0.927     0.037     2.488     2.466
   136   1 H        0.927     0.063     2.163     2.300
   137   1 H        0.927     0.060     2.194     2.316
   138   1 H        0.927     0.050     2.323     2.383
   139   1 H        0.927     0.078     1.998     2.211
   140   1 H        0.927     0.062     2.178     2.308
   141   1 H        0.927     0.062     2.176     2.307
   142   1 H        0.927     0.066     2.131     2.283
   143   1 H        0.927     0.052     2.290     2.366
   144   1 H        0.927     0.063     2.158     2.297
   145   1 H        0.927     0.057     2.232     2.336
   146   1 H        0.861     0.207     1.072     1.622
   147   1 H        0.927     0.081     1.971     2.196
   148   1 H        0.927     0.063     2.160     2.298
   149   1 H        0.927     0.062     2.174     2.306
   150   1 H        0.929     0.047     2.352     2.398
   151   1 H        0.861     0.230     0.965     1.539
   152   1 H        0.927     0.080     1.979     2.200
   153   1 H        0.927     0.059     2.212     2.326
   154   1 H        0.927     0.063     2.166     2.302
   155   1 H        0.927     0.054     2.270     2.356
   156   1 H        0.926     0.057     2.230     2.335
   157   1 H        0.927     0.073     2.056     2.242
   158   1 H        0.926     0.067     2.118     2.276
   159   1 H        0.927     0.115     1.656     2.013
   160   1 H        0.926     0.117     1.641     2.003
   161   1 H        0.861     0.213     1.043     1.599
   162   1 H        0.927     0.100     1.783     2.088
   163   1 H        0.929     0.079     1.985     2.203
   164   1 H        0.927     0.061     2.182     2.310
   165   1 H        0.927     0.076     2.018     2.222
   166   1 H        0.927     0.061     2.192     2.315
   167   1 H        0.927     0.063     2.161     2.299
   168   1 H        0.927     0.071     2.078     2.254
   169   1 H        0.927     0.055     2.256     2.349
   170   1 H        0.927     0.059     2.212     2.326
   171   1 H        0.860     0.156     1.363     1.829
   172   1 H        0.860     0.161     1.331     1.808
   173   1 H        0.926     0.060     2.196     2.317
   174   1 H        0.929     0.064     2.151     2.293
   175   1 H        0.927     0.048     2.342     2.393
   176   1 H        0.927     0.048     2.344     2.394
   177   1 H        0.927     0.029     2.607     2.525
   178   1 H        0.927     0.043     2.404     2.425
   179   1 H        0.927     0.033     2.540     2.492
   180   1 H        0.927     0.043     2.410     2.428
   181   1 H        0.927     0.040     2.445     2.445
   182   1 H        0.927     0.042     2.417     2.431
   183   1 H        0.927     0.040     2.447     2.446
   184   1 H        0.860     0.154     1.374     1.836
   185   1 H        0.860     0.163     1.319     1.799
   186   1 H        0.927     0.051     2.308     2.376
   187   1 H        0.929     0.064     2.153     2.294
   188   1 H        0.927     0.038     2.479     2.462
   189   1 H        0.927     0.039     2.457     2.451
   190   1 H        0.927     0.041     2.434     2.440
   191   1 H        0.927     0.048     2.339     2.392
   192   1 H        0.927     0.044     2.395     2.420
   193   1 H        0.927     0.050     2.316     2.380
   194   1 H        0.927     0.038     2.474     2.460
   195   1 H        0.860     0.162     1.322     1.801
   196   1 H        0.860     0.164     1.311     1.794
   197   1 H        0.927     0.049     2.334     2.389
   198   1 H        0.929     0.060     2.202     2.321
   199   1 H        0.927     0.041     2.441     2.443
   200   1 H        0.927     0.040     2.448     2.446
   201   1 H        0.927     0.033     2.542     2.493
   202   1 H        0.927     0.050     2.317     2.381
   203   1 H        0.926     0.041     2.432     2.439
   204   1 H        0.927     0.051     2.310     2.377
   205   1 H        0.927     0.039     2.459     2.452
   206   1 H        0.860     0.150     1.400     1.854
   207   1 H        0.860     0.182     1.205     1.720
   208   1 H        0.927     0.027     2.624     2.533
   209   1 H        0.927     0.036     2.508     2.476
   210   1 H        0.927     0.037     2.495     2.470
   211   1 H        0.927     0.028     2.615     2.529
   212   1 H        0.927     0.032     2.556     2.500
   213   1 H        0.861     0.206     1.074     1.623
   214   1 H        0.927     0.069     2.102     2.267
   215   1 H        0.927     0.067     2.120     2.277
   216   1 H        0.927     0.057     2.232     2.336
   217   1 H        0.927     0.032     2.553     2.499
   218   1 H        0.927     0.054     2.276     2.359
   219   1 H        0.927     0.043     2.412     2.429
   220   1 H        0.926     0.048     2.349     2.397
   221   1 H        0.927     0.040     2.445     2.445
   222   1 H        0.927     0.043     2.410     2.428
   223   1 H        0.927     0.031     2.576     2.510
   224   1 H        0.861     0.225     0.988     1.557
   225   1 H        0.927     0.085     1.928     2.171
   226   1 H        0.929     0.098     1.806     2.101
   227   1 H        0.927     0.055     2.264     2.353
   228   1 H        0.927     0.061     2.189     2.314
   229   1 H        0.860     0.153     1.381     1.841
   230   1 H        0.860     0.154     1.376     1.838
   231   1 H        0.927     0.034     2.536     2.490
   232   1 H        0.929     0.058     2.221     2.331
   233   1 H        0.927     0.053     2.283     2.363
   234   1 H        0.927     0.067     2.121     2.278
   235   1 H        0.929     0.043     2.413     2.429
   236   1 H        0.929     0.064     2.150     2.293
   237   1 H        0.929     0.043     2.411     2.428
   238   1 H        0.929     0.062     2.173     2.305
   239   1 H        0.807     0.337     0.619     1.235
   240   1 H        0.980     0.000     3.041     2.725
   241   1 H        0.980     0.005     2.966     2.691
   242   1 H        0.980     0.001     3.027     2.719
   243   1 H        0.980    -0.000     3.054     2.731
   244   1 H        0.980     0.008     2.916     2.668
   245   1 H        0.980     0.033     2.542     2.492
   246   1 H        0.980    -0.029     3.598     2.964
   247   1 H        0.980    -0.021     3.444     2.900
   248   1 H        0.980    -0.013     3.287     2.833
   249   1 H        0.980     0.027     2.617     2.528
   250   1 H        0.980    -0.008     3.182     2.788
   251   1 H        0.980    -0.019     3.402     2.882
   252   1 H        0.980    -0.012     3.273     2.827
   253   1 H        0.980    -0.025     3.516     2.930
   254   1 H        0.980     0.024     2.665     2.551
   255   1 H        0.980    -0.027     3.558     2.947
   256   1 H        0.980    -0.009     3.206     2.798
   257   1 H        0.980    -0.003     3.109     2.755
   258   1 H        0.980    -0.002     3.082     2.743
   259   1 H        0.980    -0.009     3.214     2.801
   260   1 H        0.980     0.012     2.848     2.637
   261   1 H        0.980    -0.001     3.065     2.736
   262   1 H        0.980    -0.016     3.343     2.857
   263   1 H        0.980     0.009     2.893     2.658
   264   1 H        0.980    -0.016     3.346     2.858
   265   1 H        0.980     0.003     2.998     2.706
   266   1 H        0.980     0.004     2.979     2.697
   267   1 H        0.860     0.304     0.701     1.312
   268   1 H        0.860     0.302     0.708     1.318
   269   1 H        0.860     0.291     0.741     1.349
   270   1 H        0.858     0.170     1.270     1.766

 Mol. C6AA /au·bohr⁶  :     574021.633650
 Mol. C8AA /au·bohr⁸  :   12256264.935131
 Mol. α(0) /au        :       1146.467366


Wiberg/Mayer (AO) data.
largest (>0.10) Wiberg bond orders for each atom

 ---------------------------------------------------------------------------
     #   Z sym  total        # sym  WBO       # sym  WBO       # sym  WBO
 ---------------------------------------------------------------------------
     1   7 N    2.989 --     2 C    1.009   129 H    0.962   130 H    0.957
     2   6 C    3.987 --     1 N    1.009     5 C    0.985   131 H    0.960
                             3 C    0.935
     3   6 C    3.945 --     4 O    1.651     9 N    1.274     2 C    0.935
     4   8 O    1.968 --     3 C    1.651     9 N    0.198
     5   6 C    3.994 --     6 C    1.004     2 C    0.985   133 H    0.972
                           132 H    0.970
     6   6 C    3.976 --     5 C    1.004     7 S    0.984   135 H    0.974
                           134 H    0.966
     7  16 S    2.090 --     8 C    1.012     6 C    0.984
     8   6 C    3.977 --     7 S    1.012   138 H    0.976   137 H    0.975
                           136 H    0.970
     9   7 N    3.495 --     3 C    1.274    15 C    0.968    10 C    0.966
                             4 O    0.198
    10   6 C    3.968 --    13 C    0.973     9 N    0.966   139 H    0.955
                            11 C    0.944
    11   6 C    3.948 --    12 O    1.613    16 N    1.321    10 C    0.944
    12   8 O    1.919 --    11 C    1.613    16 N    0.193
    13   6 C    3.989 --    14 C    1.010   140 H    0.975    10 C    0.973
                           141 H    0.971
    14   6 C    3.994 --    13 C    1.010    15 C    1.003   143 H    0.978
                           142 H    0.974
    15   6 C    3.967 --    14 C    1.003   145 H    0.969     9 N    0.968
                           144 H    0.966
    16   7 N    3.486 --    11 C    1.321    17 C    0.978   146 H    0.924
                            12 O    0.193
    17   6 C    3.965 --    16 N    0.978    20 C    0.966   147 H    0.948
                            18 C    0.945
    18   6 C    3.951 --    19 O    1.605    26 N    1.325    17 C    0.945
    19   8 O    1.923 --    18 C    1.605    26 N    0.199
    20   6 C    3.991 --    21 C    1.006   149 H    0.971    17 C    0.966
                           148 H    0.958
    21   6 C    3.927 --    23 C    1.563    22 N    1.153    20 C    1.006
                            24 C    0.123
    22   7 N    3.562 --    24 C    1.313    21 C    1.153   270 H    0.933
    23   6 C    3.946 --    21 C    1.563    25 N    1.246   150 H    0.888
    24   6 C    3.208 --    25 N    1.682    22 N    1.313    21 C    0.123
    25   7 N    3.094 --    24 C    1.682    23 C    1.246
    26   7 N    3.486 --    18 C    1.325    27 C    0.981   151 H    0.891
                            19 O    0.199
    27   6 C    3.966 --    26 N    0.981    30 C    0.963   152 H    0.953
                            28 C    0.945
    28   6 C    3.950 --    29 O    1.627    35 N    1.298    27 C    0.945
    29   8 O    1.977 --    28 C    1.627    35 N    0.191
    30   6 C    3.989 --    31 C    1.003   153 H    0.975   154 H    0.972
                            27 C    0.963
    31   6 C    3.993 --    30 C    1.003    32 C    1.000   156 H    0.980
                           155 H    0.975
    32   6 C    3.988 --    33 C    1.008    31 C    1.000   157 H    0.977
                           158 H    0.970
    33   6 C    3.907 --    32 C    1.008   160 H    0.968   159 H    0.966
                            34 N    0.946
    34   7 N    3.656 --    33 C    0.946   269 H    0.898   268 H    0.896
                           267 H    0.895
    35   7 N    3.462 --    28 C    1.298    36 C    0.973   161 H    0.924
                            29 O    0.191
    36   6 C    3.960 --    37 C    0.983    35 N    0.973    39 C    0.953
                           162 H    0.946
    37   6 C    3.904 --    38 O    1.916    36 C    0.983   163 H    0.947
    38   8 O    2.059 --    37 C    1.916
    39   6 C    3.988 --    40 C    1.006   164 H    0.975   165 H    0.956
                            36 C    0.953
    40   6 C    3.980 --    39 C    1.006    41 S    0.993   167 H    0.972
                           166 H    0.970
    41  16 S    2.093 --    42 C    1.014    40 C    0.993
    42   6 C    3.977 --    41 S    1.014   169 H    0.983   170 H    0.983
                           168 H    0.978
    43   7 N    3.003 --    44 C    1.023   171 H    0.959   172 H    0.956
    44   6 C    3.988 --    43 N    1.023    45 C    0.990   173 H    0.951
                            47 C    0.945
    45   6 C    3.900 --    46 O    1.882    44 C    0.990   174 H    0.952
    46   8 O    2.039 --    45 C    1.882
    47   6 C    3.988 --    48 C    0.988   175 H    0.974   176 H    0.967
                            44 C    0.945
    48   6 C    3.997 --    50 C    1.011    49 C    1.003    47 C    0.988
                           177 H    0.969
    49   6 C    3.993 --    48 C    1.003   179 H    0.986   178 H    0.985
                           180 H    0.977
    50   6 C    3.995 --    48 C    1.011   181 H    0.986   183 H    0.984
                           182 H    0.974
    51   7 N    3.003 --    52 C    1.009   185 H    0.956   184 H    0.952
    52   6 C    3.986 --    51 N    1.009    53 C    0.981   186 H    0.964
                            55 C    0.947
    53   6 C    3.893 --    54 O    1.902    52 C    0.981   187 H    0.950
    54   8 O    2.043 --    53 C    1.902
    55   6 C    3.995 --    57 C    1.010    56 C    1.008   188 H    0.966
                            52 C    0.947
    56   6 C    3.995 --    55 C    1.008   189 H    0.987   191 H    0.985
                           190 H    0.981
    57   6 C    3.995 --    55 C    1.010   193 H    0.982   192 H    0.979
                           194 H    0.978
    58   7 N    3.001 --    59 C    1.012   196 H    0.957   195 H    0.950
    59   6 C    3.987 --    58 N    1.012    60 C    0.983   197 H    0.964
                            62 C    0.942
    60   6 C    3.898 --    61 O    1.902    59 C    0.983   198 H    0.950
    61   8 O    2.047 --    60 C    1.902
    62   6 C    3.994 --    64 C    1.009    63 C    1.008   199 H    0.968
                            59 C    0.942
    63   6 C    3.996 --    62 C    1.008   200 H    0.986   202 H    0.984
                           201 H    0.981
    64   6 C    3.995 --    62 C    1.009   203 H    0.980   205 H    0.979
                           204 H    0.979
    65   7 N    2.992 --    66 C    1.012   206 H    0.959   207 H    0.924
    66   6 C    3.985 --    65 N    1.012   208 H    0.967    69 C    0.966
                            67 C    0.947
    67   6 C    3.941 --    68 O    1.594    74 N    1.325    66 C    0.947
    68   8 O    1.930 --    67 C    1.594    74 N    0.189
    69   6 C    3.992 --    70 C    1.002   210 H    0.978   209 H    0.976
                            66 C    0.966
    70   6 C    3.953 --    69 C    1.002   212 H    0.970   211 H    0.966
                            71 C    0.919
    71   6 C    3.931 --    72 O    1.501    73 O    1.488    70 C    0.919
    72   8 O    1.779 --    71 C    1.501    73 O    0.217
    73   8 O    1.767 --    71 C    1.488    72 O    0.217
    74   7 N    3.486 --    67 C    1.325    75 C    0.975   213 H    0.925
                            68 O    0.189
    75   6 C    3.965 --    74 N    0.975    78 C    0.975   214 H    0.945
                            76 C    0.938
    76   6 C    3.950 --    77 O    1.623    82 N    1.310    75 C    0.938
    77   8 O    1.935 --    76 C    1.623    82 N    0.198
    78   6 C    3.983 --    79 C    0.989    75 C    0.975   216 H    0.974
                           215 H    0.968
    79   6 C    3.995 --    81 C    1.009    80 C    1.006    78 C    0.989
                           217 H    0.969
    80   6 C    3.993 --    79 C    1.006   220 H    0.984   219 H    0.984
                           218 H    0.978
    81   6 C    3.997 --    79 C    1.009   222 H    0.986   223 H    0.986
                           221 H    0.984
    82   7 N    3.467 --    76 C    1.310    83 C    0.977   224 H    0.834
                            77 O    0.198
    83   6 C    3.965 --    82 N    0.977    84 C    0.974    86 C    0.968
                           225 H    0.937
    84   6 C    3.880 --    85 O    1.879    83 C    0.974   226 H    0.880
    85   8 O    2.028 --    84 C    1.879
    86   6 C    3.940 --    83 C    0.968   228 H    0.964   227 H    0.964
                            87 C    0.903
    87   6 C    3.937 --    88 O    1.508    89 O    1.504    86 C    0.903
    88   8 O    1.814 --    87 C    1.508    89 O    0.223
    89   8 O    1.795 --    87 C    1.504    88 O    0.223
    90   7 N    2.992 --    91 C    1.014   229 H    0.963   230 H    0.959
    91   6 C    3.989 --    90 N    1.014    92 C    0.991   231 H    0.953
                            94 C    0.941
    92   6 C    3.907 --    93 O    1.895    91 C    0.991   232 H    0.950
    93   8 O    2.043 --    92 C    1.895
    94   6 C    3.990 --    95 C    1.008   234 H    0.970   233 H    0.970
                            91 C    0.941
    95   6 C    3.986 --    96 C    1.411    97 C    1.386    94 C    1.008
    96   6 C    3.990 --    98 C    1.447    95 C    1.411   235 H    0.973
                            99 C    0.105
    97   6 C    3.990 --    99 C    1.475    95 C    1.386   236 H    0.960
    98   6 C    3.985 --    96 C    1.447   100 C    1.368   237 H    0.971
    99   6 C    3.988 --    97 C    1.475   100 C    1.347   238 H    0.964
                            96 C    0.105
   100   6 C    3.929 --    98 C    1.368    99 C    1.347   101 O    1.083
   101   8 O    2.117 --   100 C    1.083   239 H    0.865
   102   1 H    1.000 --   240 H    0.997
   103   1 H    1.000 --   241 H    0.989
   104   1 H    1.000 --   242 H    0.991
   105   1 H    1.000 --   243 H    0.982
   106   1 H    1.000 --   244 H    0.975
   107   1 H    1.000 --   245 H    0.888
   108   1 H    1.000 --   246 H    0.947
   109   1 H    1.000 --   247 H    0.936
   110   1 H    1.000 --   248 H    0.947
   111   1 H    1.000 --   249 H    0.931
   112   1 H    1.000 --   250 H    0.963
   113   1 H    0.998 --   251 H    0.922
   114   1 H    1.000 --   252 H    0.989
   115   1 H    1.000 --   253 H    0.967
   116   1 H    1.000 --   254 H    0.908
   117   1 H    0.999 --   255 H    0.922
   118   1 H    1.000 --   256 H    0.983
   119   1 H    1.000 --   257 H    0.991
   120   1 H    1.000 --   258 H    0.985
   121   1 H    1.000 --   259 H    0.970
   122   1 H    1.000 --   260 H    0.963
   123   1 H    1.000 --   261 H    0.967
   124   1 H    0.999 --   262 H    0.914
   125   1 H    1.000 --   263 H    0.928
   126   1 H    1.000 --   264 H    0.966
   127   1 H    1.000 --   265 H    0.970
   128   1 H    1.000 --   266 H    0.974
   129   1 H    0.976 --     1 N    0.962
   130   1 H    0.972 --     1 N    0.957
   131   1 H    1.000 --     2 C    0.960
   132   1 H    0.996 --     5 C    0.970
   133   1 H    0.997 --     5 C    0.972
   134   1 H    0.996 --     6 C    0.966
   135   1 H    0.998 --     6 C    0.974
   136   1 H    0.996 --     8 C    0.970
   137   1 H    0.996 --     8 C    0.975
   138   1 H    0.997 --     8 C    0.976
   139   1 H    0.994 --    10 C    0.955
   140   1 H    0.996 --    13 C    0.975
   141   1 H    0.996 --    13 C    0.971
   142   1 H    0.995 --    14 C    0.974
   143   1 H    0.997 --    14 C    0.978
   144   1 H    0.996 --    15 C    0.966
   145   1 H    0.997 --    15 C    0.969
   146   1 H    0.957 --    16 N    0.924
   147   1 H    0.993 --    17 C    0.948
   148   1 H    0.995 --    20 C    0.958
   149   1 H    0.995 --    20 C    0.971
   150   1 H    0.997 --    23 C    0.888
   151   1 H    0.947 --    26 N    0.891
   152   1 H    0.993 --    27 C    0.953
   153   1 H    0.996 --    30 C    0.975
   154   1 H    0.996 --    30 C    0.972
   155   1 H    0.997 --    31 C    0.975
   156   1 H    0.997 --    31 C    0.980
   157   1 H    0.995 --    32 C    0.977
   158   1 H    0.995 --    32 C    0.970
   159   1 H    0.987 --    33 C    0.966
   160   1 H    0.986 --    33 C    0.968
   161   1 H    0.954 --    35 N    0.924
   162   1 H    0.990 --    36 C    0.946
   163   1 H    0.994 --    37 C    0.947
   164   1 H    0.996 --    39 C    0.975
   165   1 H    0.994 --    39 C    0.956
   166   1 H    0.996 --    40 C    0.970
   167   1 H    0.996 --    40 C    0.972
   168   1 H    0.995 --    42 C    0.978
   169   1 H    0.997 --    42 C    0.983
   170   1 H    0.996 --    42 C    0.983
   171   1 H    0.976 --    43 N    0.959
   172   1 H    0.974 --    43 N    0.956
   173   1 H    0.996 --    44 C    0.951
   174   1 H    0.996 --    45 C    0.952
   175   1 H    0.998 --    47 C    0.974
   176   1 H    0.998 --    47 C    0.967
   177   1 H    0.999 --    48 C    0.969
   178   1 H    0.998 --    49 C    0.985
   179   1 H    0.999 --    49 C    0.986
   180   1 H    0.997 --    49 C    0.977
   181   1 H    0.998 --    50 C    0.986
   182   1 H    0.998 --    50 C    0.974
   183   1 H    0.998 --    50 C    0.984
   184   1 H    0.976 --    51 N    0.952
   185   1 H    0.974 --    51 N    0.956
   186   1 H    0.997 --    52 C    0.964
   187   1 H    0.996 --    53 C    0.950
   188   1 H    0.998 --    55 C    0.966
   189   1 H    0.998 --    56 C    0.987
   190   1 H    0.998 --    56 C    0.981
   191   1 H    0.998 --    56 C    0.985
   192   1 H    0.998 --    57 C    0.979
   193   1 H    0.997 --    57 C    0.982
   194   1 H    0.999 --    57 C    0.978
   195   1 H    0.974 --    58 N    0.950
   196   1 H    0.973 --    58 N    0.957
   197   1 H    0.998 --    59 C    0.964
   198   1 H    0.996 --    60 C    0.950
   199   1 H    0.998 --    62 C    0.968
   200   1 H    0.998 --    63 C    0.986
   201   1 H    0.999 --    63 C    0.981
   202   1 H    0.997 --    63 C    0.984
   203   1 H    0.998 --    64 C    0.980
   204   1 H    0.997 --    64 C    0.979
   205   1 H    0.998 --    64 C    0.979
   206   1 H    0.977 --    65 N    0.959
   207   1 H    0.967 --    65 N    0.924
   208   1 H    0.999 --    66 C    0.967
   209   1 H    0.998 --    69 C    0.976
   210   1 H    0.998 --    69 C    0.978
   211   1 H    0.998 --    70 C    0.966
   212   1 H    0.998 --    70 C    0.970
   213   1 H    0.957 --    74 N    0.925
   214   1 H    0.995 --    75 C    0.945
   215   1 H    0.995 --    78 C    0.968
   216   1 H    0.997 --    78 C    0.974
   217   1 H    0.999 --    79 C    0.969
   218   1 H    0.997 --    80 C    0.978
   219   1 H    0.998 --    80 C    0.984
   220   1 H    0.997 --    80 C    0.984
   221   1 H    0.998 --    81 C    0.984
   222   1 H    0.998 --    81 C    0.986
   223   1 H    0.999 --    81 C    0.986
   224   1 H    0.949 --    82 N    0.834
   225   1 H    0.991 --    83 C    0.937
   226   1 H    0.990 --    84 C    0.880
   227   1 H    0.996 --    86 C    0.964
   228   1 H    0.995 --    86 C    0.964
   229   1 H    0.976 --    90 N    0.963
   230   1 H    0.976 --    90 N    0.959
   231   1 H    0.999 --    91 C    0.953
   232   1 H    0.997 --    92 C    0.950
   233   1 H    0.997 --    94 C    0.970
   234   1 H    0.995 --    94 C    0.970
   235   1 H    0.998 --    96 C    0.973
   236   1 H    0.996 --    97 C    0.960
   237   1 H    0.998 --    98 C    0.971
   238   1 H    0.996 --    99 C    0.964
   239   1 H    0.886 --   101 O    0.865
   240   1 H    1.000 --   102 H    0.997
   241   1 H    1.000 --   103 H    0.989
   242   1 H    1.000 --   104 H    0.991
   243   1 H    1.000 --   105 H    0.982
   244   1 H    1.000 --   106 H    0.975
   245   1 H    0.999 --   107 H    0.888
   246   1 H    0.999 --   108 H    0.947
   247   1 H    0.999 --   109 H    0.936
   248   1 H    1.000 --   110 H    0.947
   249   1 H    0.999 --   111 H    0.931
   250   1 H    1.000 --   112 H    0.963
   251   1 H    1.000 --   113 H    0.922
   252   1 H    1.000 --   114 H    0.989
   253   1 H    0.999 --   115 H    0.967
   254   1 H    0.999 --   116 H    0.908
   255   1 H    0.999 --   117 H    0.922
   256   1 H    1.000 --   118 H    0.983
   257   1 H    1.000 --   119 H    0.991
   258   1 H    1.000 --   120 H    0.985
   259   1 H    1.000 --   121 H    0.970
   260   1 H    1.000 --   122 H    0.963
   261   1 H    1.000 --   123 H    0.967
   262   1 H    1.000 --   124 H    0.914
   263   1 H    1.000 --   125 H    0.928
   264   1 H    1.000 --   126 H    0.966
   265   1 H    1.000 --   127 H    0.970
   266   1 H    1.000 --   128 H    0.974
   267   1 H    0.907 --    34 N    0.895
   268   1 H    0.909 --    34 N    0.896
   269   1 H    0.915 --    34 N    0.898
   270   1 H    0.971 --    22 N    0.933
 ---------------------------------------------------------------------------

Topologies differ in total number of bonds
Writing topology from bond orders to xtbtopo.mol

molecular dipole:
                 x           y           z       tot (Debye)
 q only:        1.905     111.166    -128.369
   full:        1.936     111.738    -129.276     434.345
molecular quadrupole (traceless):
                xx          xy          yy          xz          yz          zz
 q only:    14547.231    -300.578   -4278.533     408.189   21400.044  -10268.698
  q+dip:    14755.962    -322.803   -4276.046     414.529   21663.500  -10479.916
   full:    14743.684    -322.455   -4274.933     412.914   21665.671  -10468.751


           -------------------------------------------------
          | TOTAL ENERGY             -346.953881876661 Eh   |
          | GRADIENT NORM               1.491165688289 Eh/α |
          | HOMO-LUMO GAP               0.847771716136 eV   |
           -------------------------------------------------
########################################################################
[WARNING] Runtime exception occurred
-3- restart_readRestart: Dimension missmatch in restart file.
-2- restart_readRestart: Multiplicity missmatch in restart file.
-1- restart_readRestart: Number of electron missmatch in restart file.
########################################################################

------------------------------------------------------------------------
 * finished run on 2025/05/05 at 17:16:05.338     
------------------------------------------------------------------------
 total:
 * wall-time:     0 d,  0 h,  0 min,  1.338 sec
 *  cpu-time:     0 d,  0 h,  0 min, 39.398 sec
 * ratio c/w:    29.446 speedup
 SCF:
 * wall-time:     0 d,  0 h,  0 min,  1.310 sec
 *  cpu-time:     0 d,  0 h,  0 min, 38.671 sec
 * ratio c/w:    29.520 speedup

