      -----------------------------------------------------------      
     |                   =====================                   |     
     |                           x T B                           |     
     |                   =====================                   |     
     |                         S. Grimme                         |     
     |          Mulliken Center for Theoretical Chemistry        |     
     |                    University of Bonn                     |     
      -----------------------------------------------------------      

   * xtb version 6.7.1 (edcfbbe) compiled by 'conda@afd1a870197c' on 2025-04-11

   xtb is free software: you can redistribute it and/or modify it under
   the terms of the GNU Lesser General Public License as published by
   the Free Software Foundation, either version 3 of the License, or
   (at your option) any later version.
   
   xtb is distributed in the hope that it will be useful,
   but WITHOUT ANY WARRANTY; without even the implied warranty of
   MERCHANTABILITY or FITNESS FOR A PARTICULAR PURPOSE.  See the
   GNU Lesser General Public License for more details.
   
   Cite this work as:
   * C. Bannwarth, E. Caldeweyher, S. Ehlert, A. Hansen, P. Pracht,
     J. Seibert, S. Spicher, S. Grimme, WIREs Comput. Mol. Sci., 2020, 11,
     e01493. DOI: 10.1002/wcms.1493
   
   for GFN2-xTB:
   * C. Bannwarth, S. Ehlert and S. Grimme., J. Chem. Theory Comput., 2019,
     15, 1652-1671. DOI: 10.1021/acs.jctc.8b01176
   for GFN1-xTB:
   * S. Grimme, C. Bannwarth, P. Shushkov, J. Chem. Theory Comput., 2017,
     13, 1989-2009. DOI: 10.1021/acs.jctc.7b00118
   for GFN0-xTB:
   * P. Pracht, E. Caldeweyher, S. Ehlert, S. Grimme, ChemRxiv, 2019, preprint.
     DOI: 10.26434/chemrxiv.8326202.v1
   for GFN-FF:
   * S. Spicher and S. Grimme, Angew. Chem. Int. Ed., 2020, 59, 15665-15673.
     DOI: 10.1002/anie.202004239
   
   for ALPB and GBSA implicit solvation:
   * S. Ehlert, M. Stahn, S. Spicher, S. Grimme, J. Chem. Theory Comput.,
     2021, 17, 4250-4261. DOI: 10.1021/acs.jctc.1c00471
   
   for ddCOSMO and CPCM-X implicit solvation:
   * M. Stahn, S. Ehlert, S. Grimme, J. Phys. Chem. A,
     2023, XX, XXXX-XXXX. DOI: 10.1021/acs.jpca.3c04382
   
   for DFT-D4:
   * E. Caldeweyher, C. Bannwarth and S. Grimme, J. Chem. Phys., 2017,
     147, 034112. DOI: 10.1063/1.4993215
   * E. Caldeweyher, S. Ehlert, A. Hansen, H. Neugebauer, S. Spicher,
     C. Bannwarth and S. Grimme, J. Chem. Phys., 2019, 150, 154122.
     DOI: 10.1063/1.5090222
   * E. Caldeweyher, J.-M. Mewes, S. Ehlert and S. Grimme, Phys. Chem. Chem. Phys.
     2020, 22, 8499-8512. DOI: 10.1039/D0CP00502A
   
   for sTDA-xTB:
   * S. Grimme and C. Bannwarth, J. Chem. Phys., 2016, 145, 054103.
     DOI: 10.1063/1.4959605
   
   in the mass-spec context:
   * V. Asgeirsson, C. Bauer and S. Grimme, Chem. Sci., 2017, 8, 4879.
     DOI: 10.1039/c7sc00601b
   * J. Koopman and S. Grimme, ACS Omega 2019, 4, 12, 15120-15133.
     DOI: 10.1021/acsomega.9b02011
   
   for metadynamics refer to:
   * S. Grimme, J. Chem. Theory Comput., 2019, 155, 2847-2862
     DOI: 10.1021/acs.jctc.9b00143
   
   for SPH calculations refer to:
   * S. Spicher and S. Grimme, J. Chem. Theory Comput., 2021, 17, 1701-1714
     DOI: 10.1021/acs.jctc.0c01306
   
   for ONIOM refer to:
   * C. Plett, A. Katbashev, S. Ehlert, S. Grimme, M. Bursch,
     Phys. Chem. Chem. Phys., 2023, 25, 17860-17868. DOI: 10.1039/D3CP02178E
   
   for DIPRO refer to:
   * J. Kohn, N. Gildemeister, S. Grimme, D. Fazzi, A. Hansen,
     J. Chem. Phys., 2023, just accepted.
   
   for PTB refer to:
   * S. Grimme, M. Mueller, A. Hansen, J. Chem. Phys., 2023, 158, 124111.
     DOI: 10.1063/5.0137838
   
   with help from (in alphabetical order)
   P. Atkinson, C. Bannwarth, F. Bohle, G. Brandenburg, E. Caldeweyher
   M. Checinski, S. Dohm, S. Ehlert, S. Ehrlich, I. Gerasimov, C. Hölzer
   A. Katbashev, J. Kohn, J. Koopman, C. Lavigne, S. Lehtola, F. März, M. Müller,
   F. Musil, H. Neugebauer, J. Pisarek, C. Plett, P. Pracht, F. Pultar,
   J. Seibert, P. Shushkov, S. Spicher, M. Stahn, M. Steiner, T. Strunk,
   J. Stückrath, T. Rose, and J. Unsleber
   
 * started run on 2025/05/05 at 16:38:48.655     
   ID    Z sym.   atoms
    1    7 N      1, 5, 13, 19, 28, 36, 44, 52, 60, 68, 74, 81, 87, 90, 91,
                  99, 100, 107, 119, 126, 131
    2    6 C      2, 3, 6, 7, 9-12, 14-18, 20, 21, 23-25, 29, 30, 32, 33, 35,
                  37, 38, 40-43, 45, 46, 48-51, 53, 54, 56, 57, 61, 62,
                  64-67, 69-73, 75, 76, 78-80, 82, 83, 85, 86, 88, 89, 92,
                  93, 95-98, 101, 102, 104, 106, 108, 109, 111-117, 120, 121,
                  123-125, 127, 128, 130, 132, 133, 135-141
    3    8 O      4, 8, 22, 26, 27, 31, 39, 47, 55, 58, 59, 63, 77, 84, 94,
                  103, 105, 110, 118, 122, 129, 134
    4   16 S      34
    5    1 H      142-298

           -------------------------------------------------
          |                Calculation Setup                |
           -------------------------------------------------

          program call               : xtb /tmp/tmp3uo1ovu9/HIE/input.xyz --alpb ether --chrg -1 --input /tmp/tmp3uo1ovu9/HIE/constraints.inp --gfn 2
          hostname                   : fedora
          coordinate file            : /tmp/tmp3uo1ovu9/HIE/input.xyz
          omp threads                :                    32


molecular fragmentation (1/2 indicates fragments):
111111111111111111111111111111111111111111122222222222222222222222222222
222222222222222222222222222222222222222222222222222222222222222222222222
222222111111111111111111111111111111111111111122222222222222222222222222
222222222222222222222222222222222222222222222222222222222222222222222222
2222222222
# atoms in fragment 1/2:    83   215
 fragment masses (1/2) :      616.73     1384.75
CMA distance (Bohr)    :  11.784
constraining FC (au)   :  0.0500

           -------------------------------------------------
          |                 G F N 2 - x T B                 |
           -------------------------------------------------

        Reference                      10.1021/acs.jctc.8b01176
      * Hamiltonian:
        H0-scaling (s, p, d)           1.850000    2.230000    2.230000
        zeta-weighting                 0.500000
      * Dispersion:
        s8                             2.700000
        a1                             0.520000
        a2                             5.000000
        s9                             5.000000
      * Repulsion:
        kExp                           1.500000    1.000000
        rExp                           1.000000
      * Coulomb:
        alpha                          2.000000
        third order                    shell-resolved
        anisotropic                    true
        a3                             3.000000
        a5                             4.000000
        cn-shift                       1.200000
        cn-exp                         4.000000
        max-rad                        5.000000

      * Solvation model:               ALPB
        Solvent                        ether
        Parameter file                 internal GFN2-xTB/ALPB
        Dielectric constant                4.3300E+00
        Reference state                gsolv [1 M gas/solution]
        Free energy shift                  4.9534E-03 Eh       3.1083E+00 kcal/mol
        Temperature                        2.9815E+02 K
        Density                            7.1300E-01 kg/L
        Solvent mass                       7.4120E+01 g/mol
        Interaction kernel             P16
        Born radius scaling (c1)           1.5847E+00
        Born radii integrator          GBOBC
        Born offset                        0.0000E+00 a0       0.0000E+00 AA
        H-bond correction              true
        Ion screening                  false
        Surface tension                    1.0000E-05 Eh       1.5569E+01 dyn/cm
        Grid points                               230 per atom

          ...................................................
          :                      SETUP                      :
          :.................................................:
          :  # basis functions                 727          :
          :  # atomic orbitals                 726          :
          :  # shells                          440          :
          :  # electrons                       789          :
          :  max. iterations                   250          :
          :  Hamiltonian                  GFN2-xTB          :
          :  restarted?                      false          :
          :  GBSA solvation                   true          :
          :  PC potential                    false          :
          :  electronic temp.          300.0000000     K    :
          :  accuracy                    1.0000000          :
          :  -> integral cutoff          0.2500000E+02      :
          :  -> integral neglect         0.1000000E-07      :
          :  -> SCF convergence          0.1000000E-05 Eh   :
          :  -> wf. convergence          0.1000000E-03 e    :
          :  Broyden damping             0.4000000          :
          :  net charge                         -1          :
          :  unpaired electrons                  0          :
          ...................................................

 iter      E             dE          RMSdq      gap      omega  full diag
   1   -445.9822405 -0.445982E+03  0.438E+00    0.11       0.0  T
   2   -444.7158889  0.126635E+01  0.314E+00    0.00       1.0  T
   3   -445.0147064 -0.298818E+00  0.288E+00    0.09       1.0  T
   4   -447.3394146 -0.232471E+01  0.180E+00    0.27       1.0  T
   5   -447.5067994 -0.167385E+00  0.131E+00    0.01       1.0  T
   6   -447.6960384 -0.189239E+00  0.118E+00    0.50       1.0  T
   7   -447.6098632  0.861753E-01  0.107E+00    0.24       1.0  T
   8   -447.7710936 -0.161230E+00  0.799E-01    0.22       1.0  T
   9   -447.7824446 -0.113510E-01  0.883E-01    0.67       1.0  T
  10   -447.8688272 -0.863825E-01  0.714E-01    0.12       1.0  T
  11   -448.0077022 -0.138875E+00  0.440E-01    0.00       1.0  T
  12   -447.9523618  0.553404E-01  0.554E-01    0.06       1.0  T
  13   -448.0156249 -0.632631E-01  0.372E-01    0.02       1.0  T
  14   -447.9478469  0.677780E-01  0.556E-01    0.03       1.0  T
  15   -447.7106642  0.237183E+00  0.838E-01    0.02       1.0  T
  16   -448.0335763 -0.322912E+00  0.350E-01    0.02       1.0  T
  17   -448.0429783 -0.940202E-02  0.305E-01    0.03       1.0  T
  18   -448.0703184 -0.273401E-01  0.223E-01    0.02       1.0  T
  19   -448.0566596  0.136588E-01  0.266E-01    0.02       1.0  T
  20   -448.0473707  0.928894E-02  0.297E-01    0.01       1.0  T
  21   -448.0302819  0.170888E-01  0.347E-01    0.04       1.0  T
  22   -448.0552525 -0.249706E-01  0.273E-01    0.04       1.0  T
  23   -448.0885521 -0.332996E-01  0.120E-01    0.00       1.0  T
  24   -448.0913140 -0.276195E-02  0.880E-02    0.01       1.0  T
  25   -448.0947592 -0.344515E-02  0.402E-02    0.02       1.0  T
  26   -448.0955957 -0.836539E-03  0.124E-02    0.01       1.0  T
  27   -448.0956274 -0.317141E-04  0.877E-03    0.02       1.0  T
  28   -448.0956196  0.786668E-05  0.102E-02    0.02       1.0  T
  29   -448.0956567 -0.370911E-04  0.534E-03    0.02       1.1  T
  30   -448.0956628 -0.617661E-05  0.416E-03    0.02       1.4  T
  31   -448.0956706 -0.780706E-05  0.218E-03    0.02       2.7  T
  32   -448.0956719 -0.124834E-05  0.160E-03    0.02       3.6  T
  33   -448.0956733 -0.138424E-05  0.290E-04    0.02      20.0  T
  34   -448.0956733 -0.295449E-07  0.176E-04    0.02      32.8  T
  35   -448.0956733 -0.941566E-08  0.118E-04    0.02      48.9  T

   *** convergence criteria satisfied after 35 iterations ***

         #    Occupation            Energy/Eh            Energy/eV
      -------------------------------------------------------------
         1        2.0000           -0.7507425             -20.4287
       ...           ...                  ...                  ...
       389        1.9986           -0.3404379              -9.2638
       390        1.9834           -0.3381106              -9.2005
       391        1.9187           -0.3365637              -9.1584
       392        1.7630           -0.3354478              -9.1280
       393        1.7396           -0.3353427              -9.1251
       394        1.3478           -0.3341767              -9.0934
       395        1.2612           -0.3339833              -9.0881 (HOMO)
       396        0.9882           -0.3334148              -9.0727 (LUMO)
       397                         -0.3135161              -8.5312
       398                         -0.2884092              -7.8480
       399                         -0.2697617              -7.3406
       400                         -0.2559709              -6.9653
       ...                                ...                  ...
       726                          1.1854051              32.2565
      -------------------------------------------------------------
                  HL-Gap            0.0005684 Eh            0.0155 eV
             Fermi-level           -0.3334389 Eh           -9.0733 eV

 SCC (total)                   0 d,  0 h,  0 min,  2.067 sec
 SCC setup                      ...        0 min,  0.005 sec (  0.248%)
 Dispersion                     ...        0 min,  0.015 sec (  0.748%)
 classical contributions        ...        0 min,  0.001 sec (  0.031%)
 integral evaluation            ...        0 min,  0.025 sec (  1.197%)
 iterations                     ...        0 min,  1.898 sec ( 91.803%)
 molecular gradient             ...        0 min,  0.114 sec (  5.522%)
 printout                       ...        0 min,  0.009 sec (  0.450%)

         :::::::::::::::::::::::::::::::::::::::::::::::::::::
         ::                     SUMMARY                     ::
         :::::::::::::::::::::::::::::::::::::::::::::::::::::
         :: total energy            -441.323109186140 Eh    ::
         :: total w/o Gsasa/hb      -441.219030039000 Eh    ::
         :: gradient norm              0.938538972772 Eh/a0 ::
         :: HOMO-LUMO gap              0.015467823187 eV    ::
         ::.................................................::
         :: SCC energy              -448.055629505656 Eh    ::
         :: -> isotropic ES            1.158818267427 Eh    ::
         :: -> anisotropic ES          0.040321638554 Eh    ::
         :: -> anisotropic XC          0.213381767453 Eh    ::
         :: -> dispersion             -0.393582923537 Eh    ::
         :: -> Gsolv                  -0.300802278417 Eh    ::
         ::    -> Gelec               -0.196723131277 Eh    ::
         ::    -> Gsasa               -0.091166893386 Eh    ::
         ::    -> Ghb                 -0.017865691332 Eh    ::
         ::    -> Gshift               0.004953437577 Eh    ::
         :: repulsion energy           6.732520319517 Eh    ::
         :: add. restraining           0.000000000000 Eh    ::
         :: total charge              -0.999999999999 e     ::
         :::::::::::::::::::::::::::::::::::::::::::::::::::::

           -------------------------------------------------
          |                Property Printout                |
           -------------------------------------------------

    * Orbital Energies and Occupations

         #    Occupation            Energy/Eh            Energy/eV
      -------------------------------------------------------------
         1        2.0000           -0.7507425             -20.4287
       ...           ...                  ...                  ...
       383        2.0000           -0.3510929              -9.5537
       384        2.0000           -0.3493248              -9.5056
       385        2.0000           -0.3468946              -9.4395
       386        2.0000           -0.3464296              -9.4268
       387        2.0000           -0.3447422              -9.3809
       388        1.9996           -0.3416142              -9.2958
       389        1.9986           -0.3404379              -9.2638
       390        1.9834           -0.3381106              -9.2005
       391        1.9187           -0.3365637              -9.1584
       392        1.7630           -0.3354478              -9.1280
       393        1.7396           -0.3353427              -9.1251
       394        1.3478           -0.3341767              -9.0934
       395        1.2612           -0.3339833              -9.0881 (HOMO)
       396        0.9882           -0.3334148              -9.0727 (LUMO)
       397                         -0.3135161              -8.5312
       398                         -0.2884092              -7.8480
       399                         -0.2697617              -7.3406
       400                         -0.2559709              -6.9653
       401                         -0.2515235              -6.8443
       402                         -0.2307345              -6.2786
       403                         -0.2131236              -5.7994
       404                         -0.2125159              -5.7829
       405                         -0.2117031              -5.7607
       406                         -0.2111878              -5.7467
       ...                                ...                  ...
       726                          1.1854051              32.2565
      -------------------------------------------------------------
                  HL-Gap            0.0005684 Eh            0.0155 eV
             Fermi-level           -0.3334389 Eh           -9.0733 eV

     #   Z          covCN         q      C6AA      α(0)
     1   7 N        2.629    -0.370    29.553     8.074
     2   6 C        3.741    -0.013    20.878     6.519
     3   6 C        2.754     0.273    22.379     7.747
     4   8 O        0.859    -0.498    23.745     6.533
     5   7 N        2.689    -0.163    24.518     7.354
     6   6 C        3.801     0.031    20.046     6.375
     7   6 C        2.755     0.275    22.350     7.742
     8   8 O        0.858    -0.494    23.654     6.521
     9   6 C        3.812    -0.069    21.818     6.649
    10   6 C        3.046    -0.019    28.428     8.745
    11   6 C        3.028     0.014    27.665     8.627
    12   6 C        3.111    -0.033    28.675     8.773
    13   7 N        1.915    -0.325    29.280     8.023
    14   6 C        3.073     0.058    26.621     8.460
    15   6 C        2.911    -0.040    28.992     8.829
    16   6 C        2.909    -0.045    29.112     8.847
    17   6 C        2.916    -0.048    29.179     8.858
    18   6 C        2.923    -0.045    29.119     8.849
    19   7 N        2.694    -0.156    24.373     7.332
    20   6 C        3.797     0.024    20.172     6.395
    21   6 C        2.758     0.274    22.376     7.746
    22   8 O        0.858    -0.491    23.580     6.510
    23   6 C        3.808    -0.055    21.559     6.609
    24   6 C        3.806    -0.080    22.025     6.681
    25   6 C        2.688     0.375    20.649     7.437
    26   8 O        0.857    -0.566    25.295     6.743
    27   8 O        0.857    -0.572    25.430     6.761
    28   7 N        2.687    -0.157    24.402     7.337
    29   6 C        3.797     0.017    20.288     6.413
    30   6 C        2.755     0.266    22.507     7.769
    31   8 O        0.858    -0.500    23.788     6.539
    32   6 C        3.827    -0.070    21.815     6.646
    33   6 C        3.798    -0.012    20.802     6.494
    34  16 S        1.961    -0.233   151.019    20.683
    35   6 C        3.751    -0.056    21.638     6.634
    36   7 N        2.693    -0.162    24.511     7.353
    37   6 C        3.791     0.027    20.134     6.390
    38   6 C        2.769     0.189    23.950     8.015
    39   8 O        0.856    -0.334    20.409     6.057
    40   6 C        3.814    -0.079    22.004     6.677
    41   6 C        3.852    -0.010    20.712     6.473
    42   6 C        3.762    -0.106    22.563     6.771
    43   6 C        3.763    -0.115    22.748     6.799
    44   7 N        2.629    -0.363    29.376     8.050
    45   6 C        3.785     0.036    19.983     6.367
    46   6 C        2.762     0.192    23.900     8.006
    47   8 O        0.856    -0.374    21.171     6.169
    48   6 C        3.853    -0.028    21.032     6.523
    49   6 C        3.806    -0.069    21.816     6.649
    50   6 C        3.761    -0.103    22.514     6.764
    51   6 C        3.755    -0.104    22.535     6.769
    52   7 N        2.630    -0.376    29.724     8.097
    53   6 C        3.783     0.044    19.853     6.347
    54   6 C        2.761     0.195    23.833     7.995
    55   8 O        0.856    -0.365    21.004     6.145
    56   6 C        3.809    -0.074    21.916     6.664
    57   6 C        2.688     0.377    20.609     7.429
    58   8 O        0.856    -0.569    25.367     6.753
    59   8 O        0.857    -0.569    25.367     6.753
    60   7 N        2.642    -0.346    28.904     7.985
    61   6 C        3.790     0.044    19.848     6.345
    62   6 C        2.766     0.269    22.459     7.761
    63   8 O        0.858    -0.497    23.707     6.528
    64   6 C        3.812    -0.066    21.747     6.638
    65   6 C        3.041    -0.016    28.379     8.737
    66   6 C        3.024     0.021    27.506     8.603
    67   6 C        3.110    -0.033    28.680     8.774
    68   7 N        1.913    -0.281    28.141     7.865
    69   6 C        3.069     0.063    26.515     8.443
    70   6 C        2.912    -0.041    29.016     8.833
    71   6 C        2.909    -0.036    28.889     8.813
    72   6 C        2.917    -0.052    29.299     8.876
    73   6 C        2.923    -0.044    29.100     8.846
    74   7 N        2.695    -0.173    24.749     7.389
    75   6 C        3.802     0.018    20.264     6.409
    76   6 C        2.768     0.273    22.392     7.750
    77   8 O        0.859    -0.502    23.837     6.546
    78   6 C        3.855    -0.016    20.822     6.490
    79   6 C        3.761    -0.112    22.695     6.791
    80   6 C        3.760    -0.120    22.839     6.813
    81   7 N        2.689    -0.162    24.494     7.350
    82   6 C        3.803     0.022    20.198     6.398
    83   6 C        2.751     0.271    22.418     7.753
    84   8 O        0.858    -0.497    23.713     6.529
    85   6 C        3.810    -0.069    21.821     6.649
    86   6 C        3.085     0.058    26.616     8.457
    87   7 N        1.991    -0.279    28.027     7.852
    88   6 C        3.059    -0.023    28.529     8.759
    89   6 C        2.108     0.043    29.755     8.814
    90   7 N        2.837    -0.059    22.371     7.025
    91   7 N        2.691    -0.168    24.637     7.372
    92   6 C        3.798     0.023    20.188     6.398
    93   6 C        2.760     0.273    22.389     7.749
    94   8 O        0.858    -0.482    23.400     6.486
    95   6 C        3.808    -0.072    21.862     6.656
    96   6 C        3.805    -0.087    22.162     6.702
    97   6 C        3.806    -0.088    22.172     6.703
    98   6 C        3.735    -0.048    21.521     6.621
    99   7 N        3.486    -0.157    24.383     7.334
   100   7 N        2.693    -0.160    24.468     7.347
   101   6 C        3.797     0.017    20.287     6.414
   102   6 C        2.766     0.193    23.878     8.003
   103   8 O        0.856    -0.360    20.895     6.129
   104   6 C        3.727     0.107    18.911     6.209
   105   8 O        1.653    -0.471    22.276     6.371
   106   6 C        3.756    -0.146    23.372     6.893
   107   7 N        2.633    -0.363    29.363     8.048
   108   6 C        3.794     0.041    19.887     6.351
   109   6 C        2.760     0.267    22.495     7.767
   110   8 O        0.858    -0.495    23.669     6.523
   111   6 C        3.817    -0.075    21.914     6.662
   112   6 C        2.963    -0.015    28.379     8.738
   113   6 C        2.928    -0.051    29.275     8.873
   114   6 C        2.926    -0.052    29.280     8.874
   115   6 C        2.918    -0.076    29.900     8.967
   116   6 C        2.918    -0.065    29.625     8.925
   117   6 C        2.848     0.147    24.803     8.162
   118   8 O        1.661    -0.423    21.305     6.231
   119   7 N        2.694    -0.168    24.642     7.373
   120   6 C        3.800     0.016    20.314     6.417
   121   6 C        2.760     0.270    22.436     7.757
   122   8 O        0.859    -0.497    23.717     6.529
   123   6 C        3.854    -0.014    20.796     6.486
   124   6 C        3.761    -0.116    22.761     6.801
   125   6 C        3.760    -0.116    22.771     6.803
   126   7 N        2.691    -0.160    24.471     7.347
   127   6 C        3.800     0.020    20.245     6.406
   128   6 C        2.761     0.269    22.462     7.761
   129   8 O        0.859    -0.502    23.833     6.545
   130   6 C        3.763    -0.114    22.730     6.796
   131   7 N        2.688    -0.168    24.639     7.372
   132   6 C        3.797     0.032    20.037     6.374
   133   6 C        2.763     0.197    23.806     7.990
   134   8 O        0.856    -0.366    21.018     6.147
   135   6 C        3.813    -0.075    21.926     6.665
   136   6 C        2.963     0.007    27.863     8.658
   137   6 C        2.924    -0.039    28.976     8.827
   138   6 C        2.924    -0.049    29.223     8.865
   139   6 C        2.917    -0.036    28.888     8.814
   140   6 C        2.916    -0.039    28.980     8.828
   141   6 C        2.919    -0.036    28.901     8.816
   142   1 H        0.980    -0.017     3.365     2.866
   143   1 H        0.980    -0.012     3.266     2.824
   144   1 H        0.980     0.001     3.035     2.722
   145   1 H        0.980     0.001     3.025     2.718
   146   1 H        0.980    -0.015     3.328     2.851
   147   1 H        0.980    -0.014     3.305     2.841
   148   1 H        0.980     0.007     2.934     2.677
   149   1 H        0.980    -0.001     3.062     2.734
   150   1 H        0.980    -0.011     3.237     2.812
   151   1 H        0.860     0.168     1.284     1.775
   152   1 H        0.860     0.152     1.387     1.845
   153   1 H        0.927     0.032     2.561     2.502
   154   1 H        0.927     0.071     2.076     2.253
   155   1 H        0.861     0.200     1.104     1.646
   156   1 H        0.927     0.067     2.120     2.277
   157   1 H        0.927     0.070     2.091     2.261
   158   1 H        0.927     0.057     2.228     2.334
   159   1 H        0.929     0.016     2.789     2.611
   160   1 H        0.929     0.027     2.628     2.535
   161   1 H        0.929     0.045     2.386     2.416
   162   1 H        0.929     0.031     2.566     2.505
   163   1 H        0.929     0.039     2.456     2.450
   164   1 H        0.861     0.224     0.993     1.561
   165   1 H        0.927     0.076     2.019     2.222
   166   1 H        0.926     0.047     2.360     2.402
   167   1 H        0.927     0.058     2.225     2.333
   168   1 H        0.927     0.063     2.167     2.302
   169   1 H        0.927     0.052     2.290     2.366
   170   1 H        0.861     0.206     1.075     1.624
   171   1 H        0.927     0.093     1.849     2.127
   172   1 H        0.926     0.062     2.172     2.304
   173   1 H        0.927     0.063     2.165     2.301
   174   1 H        0.927     0.066     2.128     2.281
   175   1 H        0.927     0.059     2.211     2.325
   176   1 H        0.927     0.068     2.112     2.272
   177   1 H        0.927     0.057     2.231     2.336
   178   1 H        0.927     0.051     2.307     2.375
   179   1 H        0.861     0.234     0.948     1.525
   180   1 H        0.927     0.089     1.890     2.150
   181   1 H        0.929     0.073     2.054     2.241
   182   1 H        0.927     0.064     2.155     2.296
   183   1 H        0.927     0.067     2.115     2.274
   184   1 H        0.927     0.038     2.474     2.460
   185   1 H        0.927     0.037     2.489     2.467
   186   1 H        0.927     0.031     2.571     2.507
   187   1 H        0.927     0.042     2.426     2.436
   188   1 H        0.926     0.044     2.395     2.420
   189   1 H        0.927     0.044     2.392     2.419
   190   1 H        0.927     0.039     2.455     2.450
   191   1 H        0.860     0.151     1.392     1.848
   192   1 H        0.860     0.160     1.332     1.808
   193   1 H        0.927     0.038     2.480     2.463
   194   1 H        0.929     0.068     2.111     2.272
   195   1 H        0.927     0.053     2.282     2.362
   196   1 H        0.927     0.046     2.365     2.405
   197   1 H        0.926     0.053     2.285     2.364
   198   1 H        0.926     0.042     2.423     2.434
   199   1 H        0.927     0.036     2.507     2.476
   200   1 H        0.927     0.049     2.327     2.386
   201   1 H        0.927     0.035     2.515     2.480
   202   1 H        0.926     0.038     2.470     2.457
   203   1 H        0.927     0.038     2.481     2.463
   204   1 H        0.860     0.161     1.328     1.805
   205   1 H        0.860     0.166     1.295     1.783
   206   1 H        0.926     0.065     2.145     2.290
   207   1 H        0.929     0.067     2.114     2.274
   208   1 H        0.927     0.050     2.315     2.379
   209   1 H        0.927     0.064     2.157     2.296
   210   1 H        0.860     0.154     1.374     1.836
   211   1 H        0.860     0.164     1.310     1.793
   212   1 H        0.927     0.012     2.852     2.641
   213   1 H        0.927     0.069     2.101     2.266
   214   1 H        0.927     0.054     2.268     2.355
   215   1 H        0.929     0.024     2.671     2.556
   216   1 H        0.929     0.034     2.531     2.488
   217   1 H        0.929     0.061     2.192     2.315
   218   1 H        0.929     0.040     2.444     2.444
   219   1 H        0.929     0.044     2.396     2.421
   220   1 H        0.861     0.225     0.986     1.555
   221   1 H        0.926     0.077     2.012     2.218
   222   1 H        0.927     0.045     2.388     2.417
   223   1 H        0.927     0.045     2.384     2.414
   224   1 H        0.927     0.035     2.513     2.479
   225   1 H        0.927     0.052     2.294     2.369
   226   1 H        0.927     0.046     2.365     2.405
   227   1 H        0.926     0.051     2.308     2.376
   228   1 H        0.926     0.044     2.401     2.423
   229   1 H        0.861     0.231     0.962     1.537
   230   1 H        0.926     0.091     1.865     2.136
   231   1 H        0.927     0.078     2.003     2.213
   232   1 H        0.926     0.090     1.875     2.141
   233   1 H        0.929     0.051     2.305     2.374
   234   1 H        0.861     0.228     0.973     1.545
   235   1 H        0.926     0.068     2.104     2.268
   236   1 H        0.927     0.061     2.191     2.315
   237   1 H        0.927     0.066     2.129     2.282
   238   1 H        0.927     0.059     2.211     2.325
   239   1 H        0.927     0.064     2.151     2.294
   240   1 H        0.927     0.093     1.850     2.127
   241   1 H        0.926     0.061     2.184     2.311
   242   1 H        0.927     0.117     1.637     2.001
   243   1 H        0.927     0.118     1.630     1.997
   244   1 H        0.861     0.213     1.043     1.600
   245   1 H        0.927     0.106     1.730     2.057
   246   1 H        0.929     0.081     1.963     2.191
   247   1 H        0.927     0.079     1.987     2.205
   248   1 H        0.804     0.331     0.635     1.252
   249   1 H        0.927     0.058     2.222     2.331
   250   1 H        0.927     0.057     2.230     2.335
   251   1 H        0.927     0.078     1.998     2.210
   252   1 H        0.860     0.150     1.400     1.853
   253   1 H        0.860     0.161     1.331     1.807
   254   1 H        0.927     0.013     2.839     2.635
   255   1 H        0.927     0.061     2.191     2.315
   256   1 H        0.926     0.058     2.217     2.328
   257   1 H        0.929     0.038     2.468     2.457
   258   1 H        0.929     0.044     2.396     2.420
   259   1 H        0.929     0.045     2.380     2.412
   260   1 H        0.929     0.052     2.293     2.368
   261   1 H        0.807     0.326     0.646     1.262
   262   1 H        0.861     0.213     1.043     1.600
   263   1 H        0.927     0.074     2.047     2.237
   264   1 H        0.927     0.046     2.376     2.410
   265   1 H        0.927     0.048     2.348     2.396
   266   1 H        0.927     0.034     2.528     2.486
   267   1 H        0.927     0.053     2.278     2.360
   268   1 H        0.927     0.050     2.315     2.379
   269   1 H        0.927     0.050     2.320     2.382
   270   1 H        0.927     0.039     2.459     2.452
   271   1 H        0.861     0.214     1.038     1.596
   272   1 H        0.927     0.092     1.863     2.135
   273   1 H        0.927     0.056     2.250     2.346
   274   1 H        0.927     0.073     2.054     2.241
   275   1 H        0.927     0.050     2.316     2.380
   276   1 H        0.861     0.234     0.947     1.524
   277   1 H        0.927     0.102     1.767     2.079
   278   1 H        0.929     0.081     1.968     2.194
   279   1 H        0.927     0.085     1.929     2.172
   280   1 H        0.927     0.069     2.099     2.266
   281   1 H        0.929     0.040     2.454     2.450
   282   1 H        0.929     0.038     2.470     2.457
   283   1 H        0.929     0.042     2.421     2.433
   284   1 H        0.929     0.043     2.406     2.425
   285   1 H        0.929     0.039     2.463     2.454
   286   1 H        0.980     0.016     2.794     2.612
   287   1 H        0.980     0.012     2.848     2.637
   288   1 H        0.980     0.002     3.020     2.716
   289   1 H        0.980    -0.000     3.054     2.731
   290   1 H        0.980     0.017     2.778     2.604
   291   1 H        0.980     0.020     2.730     2.582
   292   1 H        0.980    -0.012     3.257     2.820
   293   1 H        0.980    -0.012     3.273     2.827
   294   1 H        0.980     0.031     2.565     2.503
   295   1 H        0.860     0.283     0.767     1.371
   296   1 H        0.860     0.304     0.701     1.312
   297   1 H        0.860     0.297     0.723     1.332
   298   1 H        0.858     0.187     1.177     1.699

 Mol. C6AA /au·bohr⁶  :     852302.333163
 Mol. C8AA /au·bohr⁸  :   19250751.327189
 Mol. α(0) /au        :       1404.519909


Wiberg/Mayer (AO) data.
largest (>0.10) Wiberg bond orders for each atom

 ---------------------------------------------------------------------------
     #   Z sym  total        # sym  WBO       # sym  WBO       # sym  WBO
 ---------------------------------------------------------------------------
     1   7 N    2.982 --     2 C    1.015   152 H    0.963   151 H    0.958
     2   6 C    3.987 --     1 N    1.015   154 H    0.974   153 H    0.963
                             3 C    0.959
     3   6 C    3.946 --     4 O    1.630     5 N    1.304     2 C    0.959
     4   8 O    1.937 --     3 C    1.630     5 N    0.196
     5   7 N    3.473 --     3 C    1.304     6 C    0.977   155 H    0.929
                             4 O    0.196
     6   6 C    3.954 --     5 N    0.977     9 C    0.960   156 H    0.951
                             7 C    0.936
     7   6 C    3.950 --     8 O    1.627    19 N    1.313     6 C    0.936
     8   8 O    1.936 --     7 C    1.627    19 N    0.198
     9   6 C    3.983 --    10 C    1.019   158 H    0.973     6 C    0.960
                           157 H    0.952
    10   6 C    3.733 --    11 C    1.444    12 C    1.167     9 C    1.019
    11   6 C    3.967 --    10 C    1.444    13 N    1.371   159 H    0.972
    12   6 C    3.959 --    15 C    1.370    14 C    1.232    10 C    1.167
    13   7 N    2.728 --    11 C    1.371    14 C    1.230
    14   6 C    3.966 --    16 C    1.334    12 C    1.232    13 N    1.230
    15   6 C    3.918 --    17 C    1.428    12 C    1.370   160 H    0.970
    16   6 C    3.912 --    18 C    1.451    14 C    1.334   161 H    0.971
    17   6 C    3.936 --    15 C    1.428    18 C    1.397   162 H    0.974
    18   6 C    3.955 --    16 C    1.451    17 C    1.397   163 H    0.967
    19   7 N    3.485 --     7 C    1.313    20 C    0.983   164 H    0.910
                             8 O    0.198
    20   6 C    3.963 --    19 N    0.983    23 C    0.964   165 H    0.955
                            21 C    0.943
    21   6 C    3.947 --    22 O    1.602    28 N    1.321    20 C    0.943
    22   8 O    1.947 --    21 C    1.602    28 N    0.192
    23   6 C    3.986 --    24 C    1.003   166 H    0.977   167 H    0.975
                            20 C    0.964
    24   6 C    3.890 --    23 C    1.003   168 H    0.966   169 H    0.961
                            25 C    0.889
    25   6 C    3.916 --    26 O    1.511    27 O    1.492    24 C    0.889
    26   8 O    1.778 --    25 C    1.511    27 O    0.219
    27   8 O    1.759 --    25 C    1.492    26 O    0.219
    28   7 N    3.485 --    21 C    1.321    29 C    0.976   170 H    0.927
                            22 O    0.192
    29   6 C    3.959 --    28 N    0.976    32 C    0.970   171 H    0.945
                            30 C    0.941
    30   6 C    3.955 --    31 O    1.622    36 N    1.321    29 C    0.941
    31   8 O    1.936 --    30 C    1.622    36 N    0.203
    32   6 C    3.991 --    33 C    1.004    29 C    0.970   172 H    0.968
                           173 H    0.964
    33   6 C    3.980 --    32 C    1.004    34 S    0.991   175 H    0.974
                           174 H    0.957
    34  16 S    2.087 --    35 C    1.012    33 C    0.991
    35   6 C    3.978 --    34 S    1.012   177 H    0.984   176 H    0.978
                           178 H    0.974
    36   7 N    3.485 --    30 C    1.321    37 C    0.979   179 H    0.897
                            31 O    0.203
    37   6 C    3.967 --    38 C    0.987    36 N    0.979    40 C    0.948
                           180 H    0.948
    38   6 C    3.911 --    39 O    1.912    37 C    0.987   181 H    0.948
    39   8 O    2.065 --    38 C    1.912
    40   6 C    3.983 --    41 C    0.987   183 H    0.972   182 H    0.971
                            37 C    0.948
    41   6 C    3.995 --    42 C    1.010    43 C    1.007    40 C    0.987
                           184 H    0.970
    42   6 C    3.996 --    41 C    1.010   186 H    0.985   187 H    0.984
                           185 H    0.984
    43   6 C    3.995 --    41 C    1.007   188 H    0.987   190 H    0.986
                           189 H    0.984
    44   7 N    2.986 --    45 C    1.012   191 H    0.964   192 H    0.956
    45   6 C    3.984 --    44 N    1.012    46 C    0.991   193 H    0.945
                            48 C    0.934
    46   6 C    3.898 --    47 O    1.888    45 C    0.991   194 H    0.949
    47   8 O    2.036 --    46 C    1.888
    48   6 C    3.986 --    50 C    1.009    49 C    0.991    45 C    0.934
                           195 H    0.925
    49   6 C    3.994 --    51 C    1.014    48 C    0.991   196 H    0.979
                           197 H    0.976
    50   6 C    3.993 --    48 C    1.009   198 H    0.983   199 H    0.982
                           200 H    0.976
    51   6 C    3.995 --    49 C    1.014   202 H    0.987   203 H    0.984
                           201 H    0.977
    52   7 N    2.984 --    53 C    1.011   204 H    0.959   205 H    0.957
    53   6 C    3.984 --    52 N    1.011    54 C    0.991    56 C    0.977
                           206 H    0.921
    54   6 C    3.905 --    55 O    1.894    53 C    0.991   207 H    0.948
    55   8 O    2.047 --    54 C    1.894
    56   6 C    3.903 --    53 C    0.977   208 H    0.965   209 H    0.957
                            57 C    0.895
    57   6 C    3.923 --    58 O    1.506    59 O    1.500    56 C    0.895
    58   8 O    1.782 --    57 C    1.506    59 O    0.220
    59   8 O    1.772 --    57 C    1.500    58 O    0.220
    60   7 N    2.999 --    61 C    1.009   210 H    0.960   211 H    0.956
    61   6 C    3.966 --    60 N    1.009   212 H    0.961    64 C    0.956
                            62 C    0.944
    62   6 C    3.947 --    63 O    1.608    74 N    1.321    61 C    0.944
    63   8 O    1.943 --    62 C    1.608    74 N    0.196
    64   6 C    3.984 --    65 C    1.023   214 H    0.966   213 H    0.961
                            61 C    0.956
    65   6 C    3.709 --    66 C    1.417    67 C    1.167    64 C    1.023
    66   6 C    3.958 --    65 C    1.417    68 N    1.392   215 H    0.971
    67   6 C    3.953 --    70 C    1.369    69 C    1.230    65 C    1.167
    68   7 N    2.727 --    66 C    1.392    69 C    1.213
    69   6 C    3.955 --    71 C    1.343    67 C    1.230    68 N    1.213
    70   6 C    3.908 --    72 C    1.426    67 C    1.369   216 H    0.971
    71   6 C    3.910 --    73 C    1.443    69 C    1.343   217 H    0.967
    72   6 C    3.943 --    70 C    1.426    73 C    1.405   218 H    0.975
    73   6 C    3.942 --    71 C    1.443    72 C    1.405   219 H    0.973
    74   7 N    3.487 --    62 C    1.321    75 C    0.974   220 H    0.897
                            63 O    0.196
    75   6 C    3.962 --    74 N    0.974    78 C    0.958   221 H    0.954
                            76 C    0.944
    76   6 C    3.948 --    77 O    1.580    81 N    1.341    75 C    0.944
    77   8 O    1.946 --    76 C    1.580    81 N    0.196
    78   6 C    3.990 --    79 C    1.008    80 C    1.007   222 H    0.968
                            75 C    0.958
    79   6 C    3.994 --    78 C    1.008   224 H    0.983   225 H    0.982
                           223 H    0.979
    80   6 C    3.994 --    78 C    1.007   228 H    0.984   227 H    0.984
                           226 H    0.979
    81   7 N    3.500 --    76 C    1.341    82 C    0.984   229 H    0.894
                            77 O    0.196
    82   6 C    3.961 --    81 N    0.984    85 C    0.956    83 C    0.952
                           230 H    0.936
    83   6 C    3.952 --    84 O    1.616    91 N    1.313    82 C    0.952
    84   8 O    1.941 --    83 C    1.616    91 N    0.193
    85   6 C    3.983 --    86 C    1.013   232 H    0.958    82 C    0.956
                           231 H    0.954
    86   6 C    3.906 --    88 C    1.572    87 N    1.191    85 C    1.013
    87   7 N    3.020 --    89 C    1.596    86 C    1.191
    88   6 C    3.901 --    86 C    1.572    90 N    1.171   233 H    0.965
                            89 C    0.112
    89   6 C    3.126 --    87 N    1.596    90 N    1.326    88 C    0.112
    90   7 N    3.577 --    89 C    1.326    88 C    1.171   298 H    0.931
    91   7 N    3.470 --    83 C    1.313    92 C    0.976   234 H    0.900
                            84 O    0.193
    92   6 C    3.967 --    91 N    0.976    95 C    0.962   235 H    0.953
                            93 C    0.952
    93   6 C    3.950 --    94 O    1.634   100 N    1.295    92 C    0.952
    94   8 O    1.958 --    93 C    1.634   100 N    0.193
    95   6 C    3.987 --    96 C    1.002   236 H    0.976   237 H    0.971
                            92 C    0.962
    96   6 C    3.993 --    97 C    1.007    95 C    1.002   239 H    0.976
                           238 H    0.972
    97   6 C    3.985 --    98 C    1.011    96 C    1.007   241 H    0.965
                           240 H    0.961
    98   6 C    3.908 --    97 C    1.011   243 H    0.969   242 H    0.967
                            99 N    0.940
    99   7 N    3.659 --    98 C    0.940   297 H    0.901   296 H    0.894
                           295 H    0.893
   100   7 N    3.470 --    93 C    1.295   101 C    0.985   244 H    0.917
                            94 O    0.193
   101   6 C    3.966 --   102 C    0.992   100 N    0.985   245 H    0.931
                           104 C    0.926
   102   6 C    3.902 --   103 O    1.875   101 C    0.992   246 H    0.948
   103   8 O    2.043 --   102 C    1.875
   104   6 C    3.951 --   106 C    1.002   105 O    0.996   247 H    0.959
                           101 C    0.926
   105   8 O    1.949 --   104 C    0.996   248 H    0.874
   106   6 C    3.990 --   104 C    1.002   249 H    0.982   251 H    0.981
                           250 H    0.977
   107   7 N    2.988 --   108 C    1.011   252 H    0.963   253 H    0.959
   108   6 C    3.987 --   107 N    1.011   111 C    0.964   254 H    0.958
                           109 C    0.950
   109   6 C    3.948 --   110 O    1.628   119 N    1.303   108 C    0.950
   110   8 O    1.936 --   109 C    1.628   119 N    0.198
   111   6 C    3.993 --   112 C    1.008   255 H    0.975   108 C    0.964
                           256 H    0.963
   112   6 C    3.987 --   114 C    1.411   113 C    1.405   111 C    1.008
   113   6 C    3.992 --   115 C    1.455   112 C    1.405   257 H    0.966
                           116 C    0.106
   114   6 C    3.991 --   116 C    1.448   112 C    1.411   258 H    0.972
                           115 C    0.106
   115   6 C    3.990 --   113 C    1.455   117 C    1.362   259 H    0.970
                           114 C    0.106
   116   6 C    3.988 --   114 C    1.448   117 C    1.366   260 H    0.970
                           113 C    0.106
   117   6 C    3.940 --   116 C    1.366   115 C    1.362   118 O    1.086
   118   8 O    2.112 --   117 C    1.086   261 H    0.830
   119   7 N    3.480 --   109 C    1.303   120 C    0.981   262 H    0.913
                           110 O    0.198
   120   6 C    3.965 --   119 N    0.981   263 H    0.958   123 C    0.950
                           121 C    0.944
   121   6 C    3.949 --   122 O    1.603   126 N    1.325   120 C    0.944
   122   8 O    1.948 --   121 C    1.603   126 N    0.197
   123   6 C    3.990 --   124 C    1.008   125 C    1.007   264 H    0.970
                           120 C    0.950
   124   6 C    3.994 --   123 C    1.008   265 H    0.986   266 H    0.984
                           267 H    0.978
   125   6 C    3.994 --   123 C    1.007   268 H    0.986   270 H    0.986
                           269 H    0.984
   126   7 N    3.491 --   121 C    1.325   127 C    0.973   271 H    0.922
                           122 O    0.197
   127   6 C    3.961 --   130 C    0.979   126 N    0.973   128 C    0.950
                           272 H    0.944
   128   6 C    3.953 --   129 O    1.615   131 N    1.321   127 C    0.950
   129   8 O    1.928 --   128 C    1.615   131 N    0.199
   130   6 C    3.987 --   273 H    0.986   275 H    0.981   127 C    0.979
                           274 H    0.977
   131   7 N    3.482 --   128 C    1.321   132 C    0.988   276 H    0.884
                           129 O    0.199
   132   6 C    3.972 --   133 C    1.006   131 N    0.988   277 H    0.931
                           135 C    0.928
   133   6 C    3.900 --   134 O    1.866   132 C    1.006   278 H    0.948
   134   8 O    2.059 --   133 C    1.866
   135   6 C    3.985 --   136 C    1.012   280 H    0.968   279 H    0.963
                           132 C    0.928
   136   6 C    3.988 --   138 C    1.416   137 C    1.413   135 C    1.012
                           141 C    0.108
   137   6 C    3.994 --   139 C    1.445   136 C    1.413   281 H    0.972
                           140 C    0.111
   138   6 C    3.993 --   140 C    1.440   136 C    1.416   282 H    0.972
                           139 C    0.113
   139   6 C    3.993 --   137 C    1.445   141 C    1.435   283 H    0.967
                           138 C    0.113
   140   6 C    3.993 --   141 C    1.441   138 C    1.440   284 H    0.974
                           137 C    0.111
   141   6 C    3.992 --   140 C    1.441   139 C    1.435   285 H    0.973
                           136 C    0.108
   142   1 H    1.000 --   286 H    0.973
   143   1 H    1.000 --   287 H    0.991
   144   1 H    0.999 --   288 H    0.978
   145   1 H    1.000 --   289 H    0.965
   146   1 H    1.000 --   290 H    0.959
   147   1 H    1.000 --   291 H    0.929
   148   1 H    1.000 --   292 H    0.929
   149   1 H    1.000 --   293 H    0.954
   150   1 H    1.000 --   294 H    0.877
   151   1 H    0.972 --     1 N    0.958
   152   1 H    0.977 --     1 N    0.963
   153   1 H    0.999 --     2 C    0.963
   154   1 H    0.995 --     2 C    0.974
   155   1 H    0.959 --     5 N    0.929
   156   1 H    0.995 --     6 C    0.951
   157   1 H    0.984 --     9 C    0.952
   158   1 H    0.996 --     9 C    0.973
   159   1 H    0.999 --    11 C    0.972
   160   1 H    0.999 --    15 C    0.970
   161   1 H    0.997 --    16 C    0.971
   162   1 H    0.999 --    17 C    0.974
   163   1 H    0.998 --    18 C    0.967
   164   1 H    0.950 --    19 N    0.910
   165   1 H    0.994 --    20 C    0.955
   166   1 H    0.997 --    23 C    0.977
   167   1 H    0.995 --    23 C    0.975
   168   1 H    0.994 --    24 C    0.966
   169   1 H    0.995 --    24 C    0.961
   170   1 H    0.957 --    28 N    0.927
   171   1 H    0.991 --    29 C    0.945
   172   1 H    0.996 --    32 C    0.968
   173   1 H    0.996 --    32 C    0.964
   174   1 H    0.996 --    33 C    0.957
   175   1 H    0.996 --    33 C    0.974
   176   1 H    0.995 --    35 C    0.978
   177   1 H    0.997 --    35 C    0.984
   178   1 H    0.997 --    35 C    0.974
   179   1 H    0.945 --    36 N    0.897
   180   1 H    0.992 --    37 C    0.948
   181   1 H    0.994 --    38 C    0.948
   182   1 H    0.995 --    40 C    0.971
   183   1 H    0.995 --    40 C    0.972
   184   1 H    0.998 --    41 C    0.970
   185   1 H    0.999 --    42 C    0.984
   186   1 H    0.999 --    42 C    0.985
   187   1 H    0.998 --    42 C    0.984
   188   1 H    0.998 --    43 C    0.987
   189   1 H    0.997 --    43 C    0.984
   190   1 H    0.998 --    43 C    0.986
   191   1 H    0.977 --    44 N    0.964
   192   1 H    0.974 --    44 N    0.956
   193   1 H    0.998 --    45 C    0.945
   194   1 H    0.995 --    46 C    0.949
   195   1 H    0.997 --    48 C    0.925
   196   1 H    0.998 --    49 C    0.979
   197   1 H    0.997 --    49 C    0.976
   198   1 H    0.998 --    50 C    0.983
   199   1 H    0.998 --    50 C    0.982
   200   1 H    0.997 --    50 C    0.976
   201   1 H    0.999 --    51 C    0.977
   202   1 H    0.998 --    51 C    0.987
   203   1 H    0.999 --    51 C    0.984
   204   1 H    0.972 --    52 N    0.959
   205   1 H    0.972 --    52 N    0.957
   206   1 H    0.995 --    53 C    0.921
   207   1 H    0.995 --    54 C    0.948
   208   1 H    0.996 --    56 C    0.965
   209   1 H    0.994 --    56 C    0.957
   210   1 H    0.974 --    60 N    0.960
   211   1 H    0.972 --    60 N    0.956
   212   1 H    0.997 --    61 C    0.961
   213   1 H    0.986 --    64 C    0.961
   214   1 H    0.992 --    64 C    0.966
   215   1 H    0.998 --    66 C    0.971
   216   1 H    0.997 --    70 C    0.971
   217   1 H    0.995 --    71 C    0.967
   218   1 H    0.998 --    72 C    0.975
   219   1 H    0.998 --    73 C    0.973
   220   1 H    0.949 --    74 N    0.897
   221   1 H    0.994 --    75 C    0.954
   222   1 H    0.998 --    78 C    0.968
   223   1 H    0.998 --    79 C    0.979
   224   1 H    0.999 --    79 C    0.983
   225   1 H    0.997 --    79 C    0.982
   226   1 H    0.998 --    80 C    0.979
   227   1 H    0.997 --    80 C    0.984
   228   1 H    0.998 --    80 C    0.984
   229   1 H    0.946 --    81 N    0.894
   230   1 H    0.990 --    82 C    0.936
   231   1 H    0.993 --    85 C    0.954
   232   1 H    0.989 --    85 C    0.958
   233   1 H    0.997 --    88 C    0.965
   234   1 H    0.948 --    91 N    0.900
   235   1 H    0.995 --    92 C    0.953
   236   1 H    0.996 --    95 C    0.976
   237   1 H    0.995 --    95 C    0.971
   238   1 H    0.996 --    96 C    0.972
   239   1 H    0.996 --    96 C    0.976
   240   1 H    0.991 --    97 C    0.961
   241   1 H    0.996 --    97 C    0.965
   242   1 H    0.986 --    98 C    0.967
   243   1 H    0.986 --    98 C    0.969
   244   1 H    0.955 --   100 N    0.917
   245   1 H    0.989 --   101 C    0.931
   246   1 H    0.993 --   102 C    0.948
   247   1 H    0.994 --   104 C    0.959
   248   1 H    0.890 --   105 O    0.874
   249   1 H    0.997 --   106 C    0.982
   250   1 H    0.997 --   106 C    0.977
   251   1 H    0.994 --   106 C    0.981
   252   1 H    0.977 --   107 N    0.963
   253   1 H    0.973 --   107 N    0.959
   254   1 H    1.000 --   108 C    0.958
   255   1 H    0.996 --   111 C    0.975
   256   1 H    0.995 --   111 C    0.963
   257   1 H    0.998 --   113 C    0.966
   258   1 H    0.998 --   114 C    0.972
   259   1 H    0.998 --   115 C    0.970
   260   1 H    0.997 --   116 C    0.970
   261   1 H    0.893 --   118 O    0.830
   262   1 H    0.955 --   119 N    0.913
   263   1 H    0.994 --   120 C    0.958
   264   1 H    0.998 --   123 C    0.970
   265   1 H    0.998 --   124 C    0.986
   266   1 H    0.999 --   124 C    0.984
   267   1 H    0.996 --   124 C    0.978
   268   1 H    0.997 --   125 C    0.986
   269   1 H    0.997 --   125 C    0.984
   270   1 H    0.998 --   125 C    0.986
   271   1 H    0.954 --   126 N    0.922
   272   1 H    0.992 --   127 C    0.944
   273   1 H    0.997 --   130 C    0.986
   274   1 H    0.994 --   130 C    0.977
   275   1 H    0.997 --   130 C    0.981
   276   1 H    0.945 --   131 N    0.884
   277   1 H    0.989 --   132 C    0.931
   278   1 H    0.993 --   133 C    0.948
   279   1 H    0.993 --   135 C    0.963
   280   1 H    0.995 --   135 C    0.968
   281   1 H    0.998 --   137 C    0.972
   282   1 H    0.999 --   138 C    0.972
   283   1 H    0.998 --   139 C    0.967
   284   1 H    0.998 --   140 C    0.974
   285   1 H    0.998 --   141 C    0.973
   286   1 H    1.000 --   142 H    0.973
   287   1 H    1.000 --   143 H    0.991
   288   1 H    1.000 --   144 H    0.978
   289   1 H    1.000 --   145 H    0.965
   290   1 H    1.000 --   146 H    0.959
   291   1 H    1.000 --   147 H    0.929
   292   1 H    1.000 --   148 H    0.929
   293   1 H    1.000 --   149 H    0.954
   294   1 H    0.999 --   150 H    0.877
   295   1 H    0.920 --    99 N    0.893
   296   1 H    0.908 --    99 N    0.894
   297   1 H    0.912 --    99 N    0.901
   298   1 H    0.964 --    90 N    0.931
 ---------------------------------------------------------------------------

Topologies differ in total number of bonds
Writing topology from bond orders to xtbtopo.mol

molecular dipole:
                 x           y           z       tot (Debye)
 q only:       49.358     -11.923     -55.134
   full:       50.668     -10.531     -55.013     191.975
molecular quadrupole (traceless):
                xx          xy          yy          xz          yz          zz
 q only:     -879.643     841.264    2433.016    4264.154    -977.425   -1553.373
  q+dip:    -1026.130     736.101    2513.345    4373.650    -886.827   -1487.214
   full:    -1030.672     728.876    2513.959    4372.664    -881.312   -1483.288


           -------------------------------------------------
          | TOTAL ENERGY             -441.323109186140 Eh   |
          | GRADIENT NORM               0.938538972772 Eh/α |
          | HOMO-LUMO GAP               0.015467823187 eV   |
           -------------------------------------------------
########################################################################
[WARNING] Runtime exception occurred
-3- restart_readRestart: Dimension missmatch in restart file.
-2- restart_readRestart: Multiplicity missmatch in restart file.
-1- restart_readRestart: Number of electron missmatch in restart file.
########################################################################

------------------------------------------------------------------------
 * finished run on 2025/05/05 at 16:38:50.763     
------------------------------------------------------------------------
 total:
 * wall-time:     0 d,  0 h,  0 min,  2.108 sec
 *  cpu-time:     0 d,  0 h,  1 min,  6.568 sec
 * ratio c/w:    31.578 speedup
 SCF:
 * wall-time:     0 d,  0 h,  0 min,  2.070 sec
 *  cpu-time:     0 d,  0 h,  1 min,  5.522 sec
 * ratio c/w:    31.647 speedup

