      -----------------------------------------------------------      
     |                   =====================                   |     
     |                           x T B                           |     
     |                   =====================                   |     
     |                         S. Grimme                         |     
     |          Mulliken Center for Theoretical Chemistry        |     
     |                    University of Bonn                     |     
      -----------------------------------------------------------      

   * xtb version 6.7.1 (edcfbbe) compiled by 'conda@afd1a870197c' on 2025-04-11

   xtb is free software: you can redistribute it and/or modify it under
   the terms of the GNU Lesser General Public License as published by
   the Free Software Foundation, either version 3 of the License, or
   (at your option) any later version.
   
   xtb is distributed in the hope that it will be useful,
   but WITHOUT ANY WARRANTY; without even the implied warranty of
   MERCHANTABILITY or FITNESS FOR A PARTICULAR PURPOSE.  See the
   GNU Lesser General Public License for more details.
   
   Cite this work as:
   * C. Bannwarth, E. Caldeweyher, S. Ehlert, A. Hansen, P. Pracht,
     J. Seibert, S. Spicher, S. Grimme, WIREs Comput. Mol. Sci., 2020, 11,
     e01493. DOI: 10.1002/wcms.1493
   
   for GFN2-xTB:
   * C. Bannwarth, S. Ehlert and S. Grimme., J. Chem. Theory Comput., 2019,
     15, 1652-1671. DOI: 10.1021/acs.jctc.8b01176
   for GFN1-xTB:
   * S. Grimme, C. Bannwarth, P. Shushkov, J. Chem. Theory Comput., 2017,
     13, 1989-2009. DOI: 10.1021/acs.jctc.7b00118
   for GFN0-xTB:
   * P. Pracht, E. Caldeweyher, S. Ehlert, S. Grimme, ChemRxiv, 2019, preprint.
     DOI: 10.26434/chemrxiv.8326202.v1
   for GFN-FF:
   * S. Spicher and S. Grimme, Angew. Chem. Int. Ed., 2020, 59, 15665-15673.
     DOI: 10.1002/anie.202004239
   
   for ALPB and GBSA implicit solvation:
   * S. Ehlert, M. Stahn, S. Spicher, S. Grimme, J. Chem. Theory Comput.,
     2021, 17, 4250-4261. DOI: 10.1021/acs.jctc.1c00471
   
   for ddCOSMO and CPCM-X implicit solvation:
   * M. Stahn, S. Ehlert, S. Grimme, J. Phys. Chem. A,
     2023, XX, XXXX-XXXX. DOI: 10.1021/acs.jpca.3c04382
   
   for DFT-D4:
   * E. Caldeweyher, C. Bannwarth and S. Grimme, J. Chem. Phys., 2017,
     147, 034112. DOI: 10.1063/1.4993215
   * E. Caldeweyher, S. Ehlert, A. Hansen, H. Neugebauer, S. Spicher,
     C. Bannwarth and S. Grimme, J. Chem. Phys., 2019, 150, 154122.
     DOI: 10.1063/1.5090222
   * E. Caldeweyher, J.-M. Mewes, S. Ehlert and S. Grimme, Phys. Chem. Chem. Phys.
     2020, 22, 8499-8512. DOI: 10.1039/D0CP00502A
   
   for sTDA-xTB:
   * S. Grimme and C. Bannwarth, J. Chem. Phys., 2016, 145, 054103.
     DOI: 10.1063/1.4959605
   
   in the mass-spec context:
   * V. Asgeirsson, C. Bauer and S. Grimme, Chem. Sci., 2017, 8, 4879.
     DOI: 10.1039/c7sc00601b
   * J. Koopman and S. Grimme, ACS Omega 2019, 4, 12, 15120-15133.
     DOI: 10.1021/acsomega.9b02011
   
   for metadynamics refer to:
   * S. Grimme, J. Chem. Theory Comput., 2019, 155, 2847-2862
     DOI: 10.1021/acs.jctc.9b00143
   
   for SPH calculations refer to:
   * S. Spicher and S. Grimme, J. Chem. Theory Comput., 2021, 17, 1701-1714
     DOI: 10.1021/acs.jctc.0c01306
   
   for ONIOM refer to:
   * C. Plett, A. Katbashev, S. Ehlert, S. Grimme, M. Bursch,
     Phys. Chem. Chem. Phys., 2023, 25, 17860-17868. DOI: 10.1039/D3CP02178E
   
   for DIPRO refer to:
   * J. Kohn, N. Gildemeister, S. Grimme, D. Fazzi, A. Hansen,
     J. Chem. Phys., 2023, just accepted.
   
   for PTB refer to:
   * S. Grimme, M. Mueller, A. Hansen, J. Chem. Phys., 2023, 158, 124111.
     DOI: 10.1063/5.0137838
   
   with help from (in alphabetical order)
   P. Atkinson, C. Bannwarth, F. Bohle, G. Brandenburg, E. Caldeweyher
   M. Checinski, S. Dohm, S. Ehlert, S. Ehrlich, I. Gerasimov, C. Hölzer
   A. Katbashev, J. Kohn, J. Koopman, C. Lavigne, S. Lehtola, F. März, M. Müller,
   F. Musil, H. Neugebauer, J. Pisarek, C. Plett, P. Pracht, F. Pultar,
   J. Seibert, P. Shushkov, S. Spicher, M. Stahn, M. Steiner, T. Strunk,
   J. Stückrath, T. Rose, and J. Unsleber
   
 * started run on 2025/05/05 at 16:42:14.288     
   ID    Z sym.   atoms
    1    7 N      1, 9, 15, 18, 19, 27, 28, 36, 40, 47, 53, 56, 57, 69, 73,
                  80, 86, 91
    2    6 C      2, 3, 5, 6, 10, 11, 13, 14, 16, 17, 20, 21, 23-26, 29, 30,
                  32-35, 37, 38, 41, 42, 44, 46, 48, 49, 51, 52, 54, 55, 58,
                  59, 61-67, 70, 71, 74, 75, 77-79, 81, 82, 84, 87, 88, 90,
                  92, 93, 95-97
    3    8 O      4, 7, 8, 12, 22, 31, 39, 43, 45, 50, 60, 68, 72, 76, 83,
                  85, 89, 94
    4    1 H      98-214

           -------------------------------------------------
          |                Calculation Setup                |
           -------------------------------------------------

          program call               : xtb /tmp/tmp47cb0vm9/HID/input.xyz --alpb ether --chrg 1 --input /tmp/tmp47cb0vm9/HID/constraints.inp --gfn 2
          hostname                   : fedora
          coordinate file            : /tmp/tmp47cb0vm9/HID/input.xyz
          omp threads                :                    32


molecular fragmentation (1/2 indicates fragments):
111111111111111111222222222222222222222222222222222222222222222222222222
222222222222222222222222222222222211111111111222222222222222222222222222
2222222222222222222222222222222222222222222222222222222222222222222222
# atoms in fragment 1/2:    29   185
 fragment masses (1/2) :      251.22     1139.47
CMA distance (Bohr)    :  15.195
constraining FC (au)   :  0.0500
########################################################################
[WARNING] Please study the warnings concerning your input carefully
-1- readin_getIntValue: could not parse 'S'
########################################################################

           -------------------------------------------------
          |                 G F N 2 - x T B                 |
           -------------------------------------------------

        Reference                      10.1021/acs.jctc.8b01176
      * Hamiltonian:
        H0-scaling (s, p, d)           1.850000    2.230000    2.230000
        zeta-weighting                 0.500000
      * Dispersion:
        s8                             2.700000
        a1                             0.520000
        a2                             5.000000
        s9                             5.000000
      * Repulsion:
        kExp                           1.500000    1.000000
        rExp                           1.000000
      * Coulomb:
        alpha                          2.000000
        third order                    shell-resolved
        anisotropic                    true
        a3                             3.000000
        a5                             4.000000
        cn-shift                       1.200000
        cn-exp                         4.000000
        max-rad                        5.000000

      * Solvation model:               ALPB
        Solvent                        ether
        Parameter file                 internal GFN2-xTB/ALPB
        Dielectric constant                4.3300E+00
        Reference state                gsolv [1 M gas/solution]
        Free energy shift                  4.9534E-03 Eh       3.1083E+00 kcal/mol
        Temperature                        2.9815E+02 K
        Density                            7.1300E-01 kg/L
        Solvent mass                       7.4120E+01 g/mol
        Interaction kernel             P16
        Born radius scaling (c1)           1.5847E+00
        Born radii integrator          GBOBC
        Born offset                        0.0000E+00 a0       0.0000E+00 AA
        H-bond correction              true
        Ion screening                  false
        Surface tension                    1.0000E-05 Eh       1.5569E+01 dyn/cm
        Grid points                               230 per atom

          ...................................................
          :                      SETUP                      :
          :.................................................:
          :  # basis functions                 505          :
          :  # atomic orbitals                 505          :
          :  # shells                          311          :
          :  # electrons                       558          :
          :  max. iterations                   250          :
          :  Hamiltonian                  GFN2-xTB          :
          :  restarted?                      false          :
          :  GBSA solvation                   true          :
          :  PC potential                    false          :
          :  electronic temp.          300.0000000     K    :
          :  accuracy                    1.0000000          :
          :  -> integral cutoff          0.2500000E+02      :
          :  -> integral neglect         0.1000000E-07      :
          :  -> SCF convergence          0.1000000E-05 Eh   :
          :  -> wf. convergence          0.1000000E-03 e    :
          :  Broyden damping             0.4000000          :
          :  net charge                          1          :
          :  unpaired electrons                  0          :
          ...................................................

 iter      E             dE          RMSdq      gap      omega  full diag
   1   -316.5177335 -0.316518E+03  0.466E+00    0.13       0.0  T
   2   -312.5343140  0.398342E+01  0.435E+00    0.01       1.0  T
   3   -317.3033540 -0.476904E+01  0.277E+00    0.06       1.0  T
   4   -318.2750814 -0.971727E+00  0.204E+00    0.36       1.0  T
   5   -318.0828471  0.192234E+00  0.200E+00    0.07       1.0  T
   6   -318.0317324  0.511147E-01  0.186E+00    0.01       1.0  T
   7   -318.5997446 -0.568012E+00  0.152E+00    0.05       1.0  T
   8   -318.9424003 -0.342656E+00  0.117E+00    0.41       1.0  T
   9   -318.6201099  0.322290E+00  0.113E+00    0.02       1.0  T
  10   -318.5003187  0.119791E+00  0.125E+00    0.20       1.0  T
  11   -318.9207044 -0.420386E+00  0.107E+00    0.26       1.0  T
  12   -319.0545415 -0.133837E+00  0.798E-01    0.10       1.0  T
  13   -318.9982139  0.563276E-01  0.863E-01    0.01       1.0  T
  14   -319.0287584 -0.305445E-01  0.794E-01    0.16       1.0  T
  15   -319.0125232  0.162352E-01  0.656E-01    0.02       1.0  T
  16   -319.0936498 -0.811266E-01  0.640E-01    0.10       1.0  T
  17   -319.0938691 -0.219324E-03  0.639E-01    0.10       1.0  T
  18   -319.0160060  0.778631E-01  0.764E-01    0.02       1.0  T
  19   -318.9821396  0.338664E-01  0.826E-01    0.04       1.0  T
  20   -318.9741060  0.803360E-02  0.839E-01    0.05       1.0  T
  21   -319.0993571 -0.125251E+00  0.559E-01    0.02       1.0  T
  22   -318.7593046  0.340053E+00  0.111E+00    0.03       1.0  T
  23   -319.1766195 -0.417315E+00  0.272E-01    0.03       1.0  T
  24   -319.1620219  0.145976E-01  0.326E-01    0.02       1.0  T
  25   -319.0236992  0.138323E+00  0.691E-01    0.02       1.0  T
  26   -319.1695159 -0.145817E+00  0.274E-01    0.03       1.0  T
  27   -319.1744570 -0.494108E-02  0.223E-01    0.03       1.0  T
  28   -319.1737068  0.750227E-03  0.230E-01    0.03       1.0  T
  29   -319.1886973 -0.149906E-01  0.977E-02    0.04       1.0  T
  30   -319.1890804 -0.383120E-03  0.815E-02    0.03       1.0  T
  31   -319.1897194 -0.638990E-03  0.622E-02    0.03       1.0  T
  32   -319.1902303 -0.510875E-03  0.461E-02    0.03       1.0  T
  33   -319.1905951 -0.364750E-03  0.306E-02    0.03       1.0  T
  34   -319.1907240 -0.128947E-03  0.234E-02    0.03       1.0  T
  35   -319.1907862 -0.621794E-04  0.192E-02    0.03       1.0  T
  36   -319.1908531 -0.668741E-04  0.132E-02    0.03       1.0  T
  37   -319.1908946 -0.415488E-04  0.714E-03    0.03       1.0  T
  38   -319.1909087 -0.141408E-04  0.323E-03    0.03       2.1  T
  39   -319.1909100 -0.123772E-05  0.270E-03    0.03       2.5  T
  40   -319.1909106 -0.613784E-06  0.231E-03    0.03       3.0  T
  41   -319.1909114 -0.770040E-06  0.174E-03    0.03       3.9  T
  42   -319.1909121 -0.782443E-06  0.856E-04    0.03       8.0  T
  43   -319.1909124 -0.209047E-06  0.342E-04    0.03      20.0  T

   *** convergence criteria satisfied after 43 iterations ***

         #    Occupation            Energy/Eh            Energy/eV
      -------------------------------------------------------------
         1        2.0000           -0.7688674             -20.9219
       ...           ...                  ...                  ...
       273        1.9898           -0.3961177             -10.7789
       274        1.9407           -0.3944243             -10.7328
       275        1.9223           -0.3941579             -10.7256
       276        1.9145           -0.3940628             -10.7230
       277        1.9027           -0.3939351             -10.7195
       278        1.7971           -0.3931821             -10.6990
       279        1.4902           -0.3921291             -10.6704 (HOMO)
       280        0.8706           -0.3908627             -10.6359 (LUMO)
       281        0.1761           -0.3888890             -10.5822
       282                         -0.3123446              -8.4993
       283                         -0.3082717              -8.3885
       284                         -0.3046741              -8.2906
       ...                                ...                  ...
       505                          1.1203404              30.4860
      -------------------------------------------------------------
                  HL-Gap            0.0012664 Eh            0.0345 eV
             Fermi-level           -0.3911099 Eh          -10.6426 eV

 SCC (total)                   0 d,  0 h,  0 min,  1.777 sec
 SCC setup                      ...        0 min,  0.004 sec (  0.240%)
 Dispersion                     ...        0 min,  0.010 sec (  0.569%)
 classical contributions        ...        0 min,  0.000 sec (  0.022%)
 integral evaluation            ...        0 min,  0.015 sec (  0.865%)
 iterations                     ...        0 min,  1.677 sec ( 94.353%)
 molecular gradient             ...        0 min,  0.060 sec (  3.400%)
 printout                       ...        0 min,  0.010 sec (  0.549%)

         :::::::::::::::::::::::::::::::::::::::::::::::::::::
         ::                     SUMMARY                     ::
         :::::::::::::::::::::::::::::::::::::::::::::::::::::
         :: total energy            -314.498808234850 Eh    ::
         :: total w/o Gsasa/hb      -314.417319827246 Eh    ::
         :: gradient norm              0.965915147275 Eh/a0 ::
         :: HOMO-LUMO gap              0.034459870657 eV    ::
         ::.................................................::
         :: SCC energy              -319.169567762054 Eh    ::
         :: -> isotropic ES            0.861504656385 Eh    ::
         :: -> anisotropic ES          0.047640146280 Eh    ::
         :: -> anisotropic XC          0.160454163577 Eh    ::
         :: -> dispersion             -0.253543850340 Eh    ::
         :: -> Gsolv                  -0.236908409702 Eh    ::
         ::    -> Gelec               -0.155420002099 Eh    ::
         ::    -> Gsasa               -0.066302080748 Eh    ::
         ::    -> Ghb                 -0.020139764433 Eh    ::
         ::    -> Gshift               0.004953437577 Eh    ::
         :: repulsion energy           4.670759527204 Eh    ::
         :: add. restraining           0.000000000000 Eh    ::
         :: total charge               1.000000001049 e     ::
         :::::::::::::::::::::::::::::::::::::::::::::::::::::

           -------------------------------------------------
          |                Property Printout                |
           -------------------------------------------------

    * Orbital Energies and Occupations

         #    Occupation            Energy/Eh            Energy/eV
      -------------------------------------------------------------
         1        2.0000           -0.7688674             -20.9219
       ...           ...                  ...                  ...
       267        2.0000           -0.4121848             -11.2161
       268        2.0000           -0.4115169             -11.1979
       269        2.0000           -0.4108654             -11.1802
       270        2.0000           -0.4070303             -11.0759
       271        1.9998           -0.4000938             -10.8871
       272        1.9961           -0.3970470             -10.8042
       273        1.9898           -0.3961177             -10.7789
       274        1.9407           -0.3944243             -10.7328
       275        1.9223           -0.3941579             -10.7256
       276        1.9145           -0.3940628             -10.7230
       277        1.9027           -0.3939351             -10.7195
       278        1.7971           -0.3931821             -10.6990
       279        1.4902           -0.3921291             -10.6704 (HOMO)
       280        0.8706           -0.3908627             -10.6359 (LUMO)
       281        0.1761           -0.3888890             -10.5822
       282                         -0.3123446              -8.4993
       283                         -0.3082717              -8.3885
       284                         -0.3046741              -8.2906
       285                         -0.2943127              -8.0087
       286                         -0.2927495              -7.9661
       287                         -0.2523791              -6.8676
       288                         -0.2504846              -6.8160
       289                         -0.2469339              -6.7194
       290                         -0.2442212              -6.6456
       ...                                ...                  ...
       505                          1.1203404              30.4860
      -------------------------------------------------------------
                  HL-Gap            0.0012664 Eh            0.0345 eV
             Fermi-level           -0.3911099 Eh          -10.6426 eV

     #   Z          covCN         q      C6AA      α(0)
     1   7 N        2.626    -0.334    28.594     7.942
     2   6 C        3.797     0.027    20.123     6.387
     3   6 C        2.756     0.269    22.463     7.761
     4   8 O        0.857    -0.477    23.272     6.468
     5   6 C        3.802    -0.080    22.022     6.681
     6   6 C        2.688     0.374    20.662     7.439
     7   8 O        0.856    -0.492    23.620     6.516
     8   8 O        0.855    -0.561    25.186     6.729
     9   7 N        2.699    -0.150    24.236     7.312
    10   6 C        3.784     0.026    20.159     6.395
    11   6 C        2.761     0.206    23.628     7.960
    12   8 O        0.857    -0.335    20.425     6.059
    13   6 C        3.795    -0.071    21.859     6.658
    14   6 C        3.059     0.057    26.676     8.470
    15   7 N        1.883    -0.263    27.696     7.802
    16   6 C        2.930     0.007    27.876     8.659
    17   6 C        2.034     0.164    27.055     8.401
    18   7 N        1.914    -0.247    27.279     7.744
    19   7 N        2.628    -0.375    29.686     8.092
    20   6 C        3.774     0.028    20.130     6.393
    21   6 C        2.760     0.199    23.759     7.982
    22   8 O        0.856    -0.357    20.850     6.122
    23   6 C        3.800    -0.079    22.006     6.679
    24   6 C        3.813    -0.079    22.003     6.677
    25   6 C        3.813    -0.095    22.296     6.721
    26   6 C        3.746    -0.050    21.547     6.621
    27   7 N        3.493    -0.164    24.526     7.355
    28   7 N        2.629    -0.349    29.002     7.998
    29   6 C        3.786     0.027    20.138     6.392
    30   6 C        2.764     0.201    23.720     7.976
    31   8 O        0.856    -0.359    20.881     6.127
    32   6 C        3.824    -0.071    21.847     6.651
    33   6 C        3.856    -0.016    20.823     6.490
    34   6 C        3.776    -0.125    22.922     6.821
    35   6 C        3.767    -0.122    22.868     6.815
    36   7 N        2.627    -0.328    28.453     7.922
    37   6 C        3.742    -0.026    21.105     6.554
    38   6 C        2.750     0.257    22.674     7.797
    39   8 O        0.856    -0.477    23.288     6.470
    40   7 N        2.699    -0.170    24.674     7.377
    41   6 C        3.803     0.001    20.566     6.456
    42   6 C        2.776     0.270    22.441     7.759
    43   8 O        0.865    -0.489    23.539     6.505
    44   6 C        3.730     0.111    18.845     6.197
    45   8 O        1.659    -0.483    22.521     6.406
    46   6 C        3.767    -0.133    23.087     6.848
    47   7 N        2.710    -0.171    24.708     7.383
    48   6 C        3.820     0.021    20.205     6.397
    49   6 C        2.766     0.277    22.320     7.737
    50   8 O        0.863    -0.459    22.902     6.416
    51   6 C        3.811    -0.080    22.016     6.679
    52   6 C        3.032     0.012    27.725     8.637
    53   7 N        2.773    -0.098    23.160     7.148
    54   6 C        3.053     0.012    27.702     8.632
    55   6 C        2.111     0.032    30.022     8.854
    56   7 N        1.897    -0.216    26.552     7.639
    57   7 N        2.691    -0.186    25.036     7.431
    58   6 C        3.791     0.016    20.308     6.418
    59   6 C        2.759     0.275    22.357     7.743
    60   8 O        0.861    -0.463    22.973     6.426
    61   6 C        3.810    -0.078    21.987     6.675
    62   6 C        2.961     0.008    27.834     8.654
    63   6 C        2.923    -0.041    29.029     8.836
    64   6 C        2.918    -0.046    29.136     8.852
    65   6 C        2.912    -0.062    29.553     8.914
    66   6 C        2.914    -0.056    29.395     8.891
    67   6 C        2.845     0.164    24.456     8.105
    68   8 O        1.662    -0.394    20.736     6.147
    69   7 N        2.688    -0.172    24.717     7.384
    70   6 C        3.756    -0.027    21.112     6.551
    71   6 C        2.743     0.266    22.517     7.770
    72   8 O        0.858    -0.477    23.291     6.470
    73   7 N        2.674    -0.190    25.126     7.445
    74   6 C        3.787     0.017    20.310     6.419
    75   6 C        2.749     0.274    22.362     7.743
    76   8 O        0.859    -0.475    23.243     6.464
    77   6 C        3.858    -0.013    20.773     6.482
    78   6 C        3.764    -0.115    22.737     6.797
    79   6 C        3.768    -0.120    22.845     6.812
    80   7 N        2.679    -0.171    24.706     7.382
    81   6 C        3.773     0.014    20.370     6.431
    82   6 C        2.759     0.134    25.052     8.197
    83   8 O        0.856    -0.369    21.068     6.154
    84   6 C        3.666     0.057    19.865     6.391
    85   8 O        1.649    -0.490    22.676     6.428
    86   7 N        2.632    -0.343    28.841     7.976
    87   6 C        3.785     0.037    19.972     6.365
    88   6 C        2.746     0.262    22.579     7.780
    89   8 O        0.860    -0.477    23.284     6.470
    90   6 C        3.760    -0.119    22.832     6.812
    91   7 N        2.686    -0.176    24.811     7.398
    92   6 C        3.799     0.026    20.139     6.390
    93   6 C        2.767     0.195    23.845     7.997
    94   8 O        0.855    -0.389    21.463     6.211
    95   6 C        3.861    -0.014    20.794     6.485
    96   6 C        3.768    -0.129    23.023     6.838
    97   6 C        3.760    -0.126    22.972     6.833
    98   1 H        0.980     0.048     2.341     2.391
    99   1 H        0.980    -0.017     3.363     2.865
   100   1 H        0.980    -0.006     3.163     2.779
   101   1 H        0.980     0.009     2.900     2.661
   102   1 H        0.980     0.001     3.026     2.718
   103   1 H        0.980    -0.020     3.411     2.886
   104   1 H        0.980     0.003     2.999     2.706
   105   1 H        0.980    -0.018     3.385     2.875
   106   1 H        0.980     0.015     2.809     2.619
   107   1 H        0.860     0.196     1.127     1.663
   108   1 H        0.860     0.189     1.162     1.689
   109   1 H        0.926     0.080     1.982     2.202
   110   1 H        0.926     0.079     1.992     2.207
   111   1 H        0.927     0.090     1.882     2.146
   112   1 H        0.861     0.234     0.947     1.525
   113   1 H        0.927     0.089     1.885     2.147
   114   1 H        0.929     0.083     1.947     2.182
   115   1 H        0.926     0.097     1.815     2.107
   116   1 H        0.927     0.105     1.739     2.062
   117   1 H        0.929     0.088     1.894     2.152
   118   1 H        0.860     0.158     1.348     1.819
   119   1 H        0.860     0.167     1.289     1.779
   120   1 H        0.927     0.049     2.333     2.389
   121   1 H        0.929     0.074     2.043     2.235
   122   1 H        0.927     0.065     2.137     2.286
   123   1 H        0.927     0.062     2.171     2.304
   124   1 H        0.927     0.058     2.217     2.328
   125   1 H        0.927     0.068     2.105     2.269
   126   1 H        0.927     0.070     2.081     2.256
   127   1 H        0.927     0.072     2.065     2.247
   128   1 H        0.927     0.112     1.678     2.025
   129   1 H        0.927     0.112     1.680     2.027
   130   1 H        0.860     0.189     1.162     1.689
   131   1 H        0.860     0.163     1.319     1.799
   132   1 H        0.927     0.073     2.049     2.238
   133   1 H        0.929     0.061     2.184     2.311
   134   1 H        0.927     0.046     2.366     2.405
   135   1 H        0.927     0.050     2.314     2.379
   136   1 H        0.927     0.049     2.331     2.387
   137   1 H        0.927     0.048     2.348     2.396
   138   1 H        0.927     0.042     2.426     2.436
   139   1 H        0.927     0.047     2.358     2.401
   140   1 H        0.927     0.044     2.393     2.419
   141   1 H        0.927     0.037     2.485     2.465
   142   1 H        0.927     0.040     2.451     2.448
   143   1 H        0.860     0.179     1.217     1.728
   144   1 H        0.860     0.166     1.297     1.784
   145   1 H        0.927     0.061     2.184     2.311
   146   1 H        0.927     0.079     1.990     2.206
   147   1 H        0.861     0.213     1.044     1.600
   148   1 H        0.927     0.085     1.924     2.169
   149   1 H        0.927     0.071     2.077     2.254
   150   1 H        0.804     0.326     0.648     1.265
   151   1 H        0.927     0.052     2.291     2.367
   152   1 H        0.927     0.040     2.448     2.446
   153   1 H        0.927     0.072     2.062     2.246
   154   1 H        0.861     0.238     0.933     1.513
   155   1 H        0.927     0.078     2.001     2.212
   156   1 H        0.927     0.086     1.920     2.167
   157   1 H        0.927     0.082     1.960     2.189
   158   1 H        0.929     0.063     2.161     2.299
   159   1 H        0.861     0.211     1.052     1.607
   160   1 H        0.927     0.086     1.916     2.165
   161   1 H        0.927     0.089     1.887     2.148
   162   1 H        0.927     0.080     1.980     2.200
   163   1 H        0.929     0.062     2.177     2.307
   164   1 H        0.929     0.066     2.127     2.281
   165   1 H        0.929     0.068     2.111     2.272
   166   1 H        0.929     0.075     2.030     2.228
   167   1 H        0.807     0.350     0.587     1.203
   168   1 H        0.861     0.202     1.098     1.641
   169   1 H        0.927     0.119     1.625     1.994
   170   1 H        0.927     0.104     1.745     2.066
   171   1 H        0.861     0.213     1.044     1.600
   172   1 H        0.926     0.071     2.077     2.254
   173   1 H        0.927     0.061     2.182     2.310
   174   1 H        0.927     0.049     2.336     2.390
   175   1 H        0.927     0.036     2.502     2.474
   176   1 H        0.927     0.052     2.297     2.370
   177   1 H        0.927     0.046     2.371     2.408
   178   1 H        0.927     0.047     2.351     2.398
   179   1 H        0.927     0.055     2.253     2.347
   180   1 H        0.861     0.212     1.046     1.602
   181   1 H        0.927     0.088     1.900     2.156
   182   1 H        0.929     0.122     1.599     1.978
   183   1 H        0.927     0.066     2.135     2.285
   184   1 H        0.927     0.083     1.945     2.181
   185   1 H        0.804     0.342     0.606     1.223
   186   1 H        0.860     0.166     1.300     1.786
   187   1 H        0.860     0.172     1.263     1.761
   188   1 H        0.927     0.050     2.322     2.383
   189   1 H        0.927     0.060     2.201     2.320
   190   1 H        0.927     0.060     2.198     2.318
   191   1 H        0.927     0.058     2.223     2.331
   192   1 H        0.861     0.211     1.052     1.606
   193   1 H        0.927     0.124     1.580     1.965
   194   1 H        0.929     0.071     2.072     2.251
   195   1 H        0.927     0.063     2.168     2.303
   196   1 H        0.927     0.049     2.331     2.388
   197   1 H        0.927     0.069     2.098     2.265
   198   1 H        0.927     0.050     2.316     2.380
   199   1 H        0.927     0.050     2.325     2.385
   200   1 H        0.927     0.060     2.199     2.319
   201   1 H        0.927     0.039     2.459     2.452
   202   1 H        0.983     0.028     2.612     2.525
   203   1 H        0.980     0.019     2.740     2.587
   204   1 H        0.980     0.006     2.946     2.682
   205   1 H        0.980    -0.011     3.247     2.816
   206   1 H        0.980    -0.013     3.283     2.831
   207   1 H        0.980     0.033     2.530     2.486
   208   1 H        0.980    -0.013     3.288     2.833
   209   1 H        0.980     0.040     2.439     2.440
   210   1 H        0.980    -0.017     3.356     2.863
   211   1 H        0.860     0.299     0.717     1.326
   212   1 H        0.860     0.305     0.698     1.309
   213   1 H        0.860     0.299     0.717     1.326
   214   1 H        0.858     0.208     1.065     1.616

 Mol. C6AA /au·bohr⁶  :     399021.768533
 Mol. C8AA /au·bohr⁸  :    8697368.062246
 Mol. α(0) /au        :        951.089793


Wiberg/Mayer (AO) data.
largest (>0.10) Wiberg bond orders for each atom

 ---------------------------------------------------------------------------
     #   Z sym  total        # sym  WBO       # sym  WBO       # sym  WBO
 ---------------------------------------------------------------------------
     1   7 N    2.996 --     2 C    1.014   108 H    0.948   107 H    0.915
     2   6 C    3.956 --     1 N    1.014     5 C    0.986     3 C    0.949
                           109 H    0.915
     3   6 C    3.951 --     4 O    1.617     9 N    1.310     2 C    0.949
     4   8 O    1.938 --     3 C    1.617     9 N    0.194
     5   6 C    3.880 --     2 C    0.986   110 H    0.960   111 H    0.957
                             6 C    0.875
     6   6 C    3.907 --     7 O    1.599     8 O    1.411     5 C    0.875
     7   8 O    1.916 --     6 C    1.599     8 O    0.218
     8   8 O    1.706 --     6 C    1.411     7 O    0.218
     9   7 N    3.485 --     3 C    1.310    10 C    1.003   112 H    0.876
                             4 O    0.194
    10   6 C    3.964 --     9 N    1.003    11 C    0.973   113 H    0.952
                            13 C    0.907
    11   6 C    3.897 --    12 O    1.924    10 C    0.973   114 H    0.946
    12   8 O    2.070 --    11 C    1.924
    13   6 C    3.978 --    14 C    1.041   115 H    0.957   116 H    0.934
                            10 C    0.907
    14   6 C    3.887 --    16 C    1.484    15 N    1.155    13 C    1.041
                            17 C    0.128
    15   7 N    3.002 --    17 C    1.625    14 C    1.155    18 N    0.131
    16   6 C    3.891 --    14 C    1.484    18 N    1.213   117 H    0.963
                            17 C    0.132
    17   6 C    3.578 --    18 N    1.631    15 N    1.625    16 C    0.132
                            14 C    0.128
    18   7 N    3.052 --    17 C    1.631    16 C    1.213    15 N    0.131
    19   7 N    2.981 --    20 C    1.006   118 H    0.962   119 H    0.956
    20   6 C    3.982 --    19 N    1.006    21 C    0.977   120 H    0.961
                            23 C    0.956
    21   6 C    3.889 --    22 O    1.902    20 C    0.977   121 H    0.950
    22   8 O    2.050 --    21 C    1.902
    23   6 C    3.989 --    24 C    1.007   122 H    0.975   123 H    0.973
                            20 C    0.956
    24   6 C    3.993 --    23 C    1.007    25 C    1.004   124 H    0.974
                           125 H    0.971
    25   6 C    3.988 --    26 C    1.008    24 C    1.004   126 H    0.972
                           127 H    0.969
    26   6 C    3.910 --    25 C    1.008   128 H    0.963   129 H    0.959
                            27 N    0.951
    27   7 N    3.654 --    26 C    0.951   211 H    0.897   213 H    0.897
                           212 H    0.888
    28   7 N    2.976 --    29 C    1.016   131 H    0.957   130 H    0.935
    29   6 C    3.978 --    28 N    1.016    30 C    0.980   132 H    0.950
                            32 C    0.950
    30   6 C    3.894 --    31 O    1.907    29 C    0.980   133 H    0.948
    31   8 O    2.048 --    30 C    1.907
    32   6 C    3.979 --    33 C    0.989   135 H    0.973   134 H    0.970
                            29 C    0.950
    33   6 C    3.995 --    35 C    1.010    34 C    1.009    32 C    0.989
                           136 H    0.959
    34   6 C    3.992 --    33 C    1.009   138 H    0.985   137 H    0.983
                           139 H    0.982
    35   6 C    3.996 --    33 C    1.010   140 H    0.985   141 H    0.984
                           142 H    0.981
    36   7 N    2.966 --    37 C    1.024   144 H    0.958   143 H    0.955
    37   6 C    3.982 --    36 N    1.024    38 C    0.974   146 H    0.957
                           145 H    0.948
    38   6 C    3.949 --    39 O    1.629    40 N    1.266    37 C    0.974
    39   8 O    1.958 --    38 C    1.629    40 N    0.189
    40   7 N    3.456 --    38 C    1.266    41 C    0.991   147 H    0.926
                            39 O    0.189
    41   6 C    3.965 --    40 N    0.991    44 C    0.946   148 H    0.944
                            42 C    0.933
    42   6 C    3.953 --    43 O    1.632    47 N    1.310    41 C    0.933
    43   8 O    1.946 --    42 C    1.632    47 N    0.202
    44   6 C    3.951 --    46 C    1.009    45 O    0.982   149 H    0.960
                            41 C    0.946
    45   8 O    1.942 --    44 C    0.982   150 H    0.811
    46   6 C    3.992 --    44 C    1.009   152 H    0.982   153 H    0.980
                           151 H    0.980
    47   7 N    3.478 --    42 C    1.310    48 C    0.976   154 H    0.888
                            43 O    0.202
    48   6 C    3.969 --    47 N    0.976    51 C    0.956   155 H    0.955
                            49 C    0.948
    49   6 C    3.952 --    50 O    1.653    57 N    1.280    48 C    0.948
    50   8 O    1.990 --    49 C    1.653    57 N    0.196
    51   6 C    3.984 --    52 C    1.012   157 H    0.958   156 H    0.958
                            48 C    0.956
    52   6 C    3.901 --    54 C    1.567    53 N    1.145    51 C    1.012
                            55 C    0.116
    53   7 N    3.511 --    55 C    1.271    52 C    1.145   214 H    0.924
    54   6 C    3.899 --    52 C    1.567    56 N    1.216   158 H    0.966
    55   6 C    3.174 --    56 N    1.680    53 N    1.271    52 C    0.116
    56   7 N    3.059 --    55 C    1.680    54 C    1.216
    57   7 N    3.460 --    49 C    1.280    58 C    0.974   159 H    0.928
                            50 O    0.196
    58   6 C    3.949 --    57 N    0.974    61 C    0.959   160 H    0.950
                            59 C    0.929
    59   6 C    3.950 --    60 O    1.665    69 N    1.280    58 C    0.929
    60   8 O    1.983 --    59 C    1.665    69 N    0.195
    61   6 C    3.978 --    62 C    1.017   162 H    0.968    58 C    0.959
                           161 H    0.957
    62   6 C    3.893 --    63 C    1.376    64 C    1.375    61 C    1.017
    63   6 C    3.971 --    65 C    1.470    62 C    1.376   163 H    0.967
    64   6 C    3.973 --    66 C    1.480    62 C    1.375   164 H    0.970
    65   6 C    3.946 --    63 C    1.470    67 C    1.332   165 H    0.961
    66   6 C    3.938 --    64 C    1.480    67 C    1.316   166 H    0.968
    67   6 C    3.864 --    65 C    1.332    66 C    1.316    68 O    1.115
    68   8 O    2.093 --    67 C    1.115   167 H    0.838
    69   7 N    3.458 --    59 C    1.280    70 C    0.993   168 H    0.931
                            60 O    0.195
    70   6 C    3.959 --    69 N    0.993    71 C    0.971   170 H    0.952
                           169 H    0.938
    71   6 C    3.949 --    72 O    1.658    73 N    1.256    70 C    0.971
    72   8 O    1.965 --    71 C    1.658    73 N    0.202
    73   7 N    3.433 --    71 C    1.256    74 C    0.962   171 H    0.912
                            72 O    0.202
    74   6 C    3.963 --    73 N    0.962   172 H    0.961    77 C    0.960
                            75 C    0.951
    75   6 C    3.947 --    76 O    1.623    80 N    1.292    74 C    0.951
    76   8 O    1.973 --    75 C    1.623    80 N    0.194
    77   6 C    3.989 --    79 C    1.012    78 C    1.006   173 H    0.960
                            74 C    0.960
    78   6 C    3.994 --    77 C    1.006   174 H    0.985   175 H    0.984
                           176 H    0.974
    79   6 C    3.993 --    77 C    1.012   177 H    0.984   179 H    0.983
                           178 H    0.981
    80   7 N    3.468 --    75 C    1.292    81 C    0.971   180 H    0.930
                            76 O    0.194
    81   6 C    3.962 --    80 N    0.971    82 C    0.964    84 C    0.949
                           181 H    0.942
    82   6 C    3.862 --    83 O    1.882    81 C    0.964   182 H    0.862
    83   8 O    2.042 --    82 C    1.882
    84   6 C    3.951 --    85 O    1.003   184 H    0.971   183 H    0.969
                            81 C    0.949
    85   8 O    1.935 --    84 C    1.003   185 H    0.802
    86   7 N    2.966 --    87 C    1.018   186 H    0.956   187 H    0.942
    87   6 C    3.968 --    86 N    1.018    90 C    0.987   188 H    0.943
                            88 C    0.936
    88   6 C    3.942 --    89 O    1.663    91 N    1.274    87 C    0.936
    89   8 O    1.973 --    88 C    1.663    91 N    0.197
    90   6 C    3.987 --    87 C    0.987   189 H    0.984   190 H    0.978
                           191 H    0.977
    91   7 N    3.452 --    88 C    1.274    92 C    0.983   192 H    0.923
                            89 O    0.197
    92   6 C    3.965 --    93 C    1.007    91 N    0.983    95 C    0.950
                           193 H    0.906
    93   6 C    3.899 --    94 O    1.862    92 C    1.007   194 H    0.953
    94   8 O    2.015 --    93 C    1.862
    95   6 C    3.985 --    96 C    1.013    97 C    1.006   195 H    0.961
                            92 C    0.950
    96   6 C    3.992 --    95 C    1.013   196 H    0.984   198 H    0.982
                           197 H    0.978
    97   6 C    3.994 --    95 C    1.006   201 H    0.986   200 H    0.983
                           199 H    0.981
    98   1 H    0.998 --   202 H    0.889
    99   1 H    1.000 --   203 H    0.974
   100   1 H    1.000 --   204 H    0.989
   101   1 H    1.000 --   205 H    0.938
   102   1 H    1.000 --   206 H    0.966
   103   1 H    1.000 --   207 H    0.914
   104   1 H    1.000 --   208 H    0.941
   105   1 H    0.999 --   209 H    0.885
   106   1 H    1.000 --   210 H    0.928
   107   1 H    0.959 --     1 N    0.915
   108   1 H    0.962 --     1 N    0.948
   109   1 H    0.958 --     2 C    0.915
   110   1 H    0.991 --     5 C    0.960
   111   1 H    0.991 --     5 C    0.957
   112   1 H    0.945 --     9 N    0.876
   113   1 H    0.991 --    10 C    0.952
   114   1 H    0.992 --    11 C    0.946
   115   1 H    0.988 --    13 C    0.957
   116   1 H    0.986 --    13 C    0.934
   117   1 H    0.992 --    16 C    0.963
   118   1 H    0.975 --    19 N    0.962
   119   1 H    0.972 --    19 N    0.956
   120   1 H    0.997 --    20 C    0.961
   121   1 H    0.994 --    21 C    0.950
   122   1 H    0.995 --    23 C    0.975
   123   1 H    0.996 --    23 C    0.973
   124   1 H    0.997 --    24 C    0.974
   125   1 H    0.995 --    24 C    0.971
   126   1 H    0.995 --    25 C    0.972
   127   1 H    0.995 --    25 C    0.969
   128   1 H    0.987 --    26 C    0.963
   129   1 H    0.987 --    26 C    0.959
   130   1 H    0.962 --    28 N    0.935
   131   1 H    0.972 --    28 N    0.957
   132   1 H    0.993 --    29 C    0.950
   133   1 H    0.995 --    30 C    0.948
   134   1 H    0.997 --    32 C    0.970
   135   1 H    0.997 --    32 C    0.973
   136   1 H    0.997 --    33 C    0.959
   137   1 H    0.998 --    34 C    0.983
   138   1 H    0.998 --    34 C    0.985
   139   1 H    0.996 --    34 C    0.982
   140   1 H    0.998 --    35 C    0.985
   141   1 H    0.998 --    35 C    0.984
   142   1 H    0.998 --    35 C    0.981
   143   1 H    0.966 --    36 N    0.955
   144   1 H    0.971 --    36 N    0.958
   145   1 H    0.985 --    37 C    0.948
   146   1 H    0.992 --    37 C    0.957
   147   1 H    0.955 --    40 N    0.926
   148   1 H    0.993 --    41 C    0.944
   149   1 H    0.994 --    44 C    0.960
   150   1 H    0.894 --    45 O    0.811
   151   1 H    0.997 --    46 C    0.980
   152   1 H    0.998 --    46 C    0.982
   153   1 H    0.994 --    46 C    0.980
   154   1 H    0.943 --    47 N    0.888
   155   1 H    0.993 --    48 C    0.955
   156   1 H    0.989 --    51 C    0.958
   157   1 H    0.991 --    51 C    0.958
   158   1 H    0.994 --    54 C    0.966
   159   1 H    0.955 --    57 N    0.928
   160   1 H    0.992 --    58 C    0.950
   161   1 H    0.988 --    61 C    0.957
   162   1 H    0.991 --    61 C    0.968
   163   1 H    0.996 --    63 C    0.967
   164   1 H    0.995 --    64 C    0.970
   165   1 H    0.995 --    65 C    0.961
   166   1 H    0.994 --    66 C    0.968
   167   1 H    0.877 --    68 O    0.838
   168   1 H    0.959 --    69 N    0.931
   169   1 H    0.985 --    70 C    0.938
   170   1 H    0.989 --    70 C    0.952
   171   1 H    0.955 --    73 N    0.912
   172   1 H    0.995 --    74 C    0.961
   173   1 H    0.996 --    77 C    0.960
   174   1 H    0.998 --    78 C    0.985
   175   1 H    0.999 --    78 C    0.984
   176   1 H    0.997 --    78 C    0.974
   177   1 H    0.998 --    79 C    0.984
   178   1 H    0.997 --    79 C    0.981
   179   1 H    0.997 --    79 C    0.983
   180   1 H    0.955 --    80 N    0.930
   181   1 H    0.992 --    81 C    0.942
   182   1 H    0.985 --    82 C    0.862
   183   1 H    0.995 --    84 C    0.969
   184   1 H    0.993 --    84 C    0.971
   185   1 H    0.883 --    85 O    0.802
   186   1 H    0.971 --    86 N    0.956
   187   1 H    0.968 --    86 N    0.942
   188   1 H    0.976 --    87 C    0.943
   189   1 H    0.995 --    90 C    0.984
   190   1 H    0.996 --    90 C    0.978
   191   1 H    0.997 --    90 C    0.977
   192   1 H    0.955 --    91 N    0.923
   193   1 H    0.984 --    92 C    0.906
   194   1 H    0.995 --    93 C    0.953
   195   1 H    0.995 --    95 C    0.961
   196   1 H    0.998 --    96 C    0.984
   197   1 H    0.995 --    96 C    0.978
   198   1 H    0.997 --    96 C    0.982
   199   1 H    0.998 --    97 C    0.981
   200   1 H    0.996 --    97 C    0.983
   201   1 H    0.998 --    97 C    0.986
   202   1 H    0.999 --    98 H    0.889
   203   1 H    1.000 --    99 H    0.974
   204   1 H    1.000 --   100 H    0.989
   205   1 H    1.000 --   101 H    0.938
   206   1 H    1.000 --   102 H    0.966
   207   1 H    0.999 --   103 H    0.914
   208   1 H    0.999 --   104 H    0.941
   209   1 H    0.998 --   105 H    0.885
   210   1 H    1.000 --   106 H    0.928
   211   1 H    0.911 --    27 N    0.897
   212   1 H    0.907 --    27 N    0.888
   213   1 H    0.910 --    27 N    0.897
   214   1 H    0.957 --    53 N    0.924
 ---------------------------------------------------------------------------

Topologies differ in total number of bonds
Writing topology from bond orders to xtbtopo.mol

molecular dipole:
                 x           y           z       tot (Debye)
 q only:      139.534      34.591      -2.001
   full:      139.030      34.473      -2.000     364.115
molecular quadrupole (traceless):
                xx          xy          yy          xz          yz          zz
 q only:    18934.330    7204.855   -8606.818    -361.910    -206.021  -10327.512
  q+dip:    18796.330    7144.971   -8565.668    -365.856    -211.948  -10230.662
   full:    18793.260    7141.910   -8564.558    -365.373    -211.200  -10228.702


           -------------------------------------------------
          | TOTAL ENERGY             -314.498808234850 Eh   |
          | GRADIENT NORM               0.965915147275 Eh/α |
          | HOMO-LUMO GAP               0.034459870657 eV   |
           -------------------------------------------------
########################################################################
[WARNING] Runtime exception occurred
-3- restart_readRestart: Dimension missmatch in restart file.
-2- restart_readRestart: Multiplicity missmatch in restart file.
-1- restart_readRestart: Number of electron missmatch in restart file.
########################################################################

------------------------------------------------------------------------
 * finished run on 2025/05/05 at 16:42:16.089     
------------------------------------------------------------------------
 total:
 * wall-time:     0 d,  0 h,  0 min,  1.801 sec
 *  cpu-time:     0 d,  0 h,  0 min, 50.173 sec
 * ratio c/w:    27.864 speedup
 SCF:
 * wall-time:     0 d,  0 h,  0 min,  1.779 sec
 *  cpu-time:     0 d,  0 h,  0 min, 49.643 sec
 * ratio c/w:    27.898 speedup

