      -----------------------------------------------------------      
     |                   =====================                   |     
     |                           x T B                           |     
     |                   =====================                   |     
     |                         S. Grimme                         |     
     |          Mulliken Center for Theoretical Chemistry        |     
     |                    University of Bonn                     |     
      -----------------------------------------------------------      

   * xtb version 6.7.1 (edcfbbe) compiled by 'conda@afd1a870197c' on 2025-04-11

   xtb is free software: you can redistribute it and/or modify it under
   the terms of the GNU Lesser General Public License as published by
   the Free Software Foundation, either version 3 of the License, or
   (at your option) any later version.
   
   xtb is distributed in the hope that it will be useful,
   but WITHOUT ANY WARRANTY; without even the implied warranty of
   MERCHANTABILITY or FITNESS FOR A PARTICULAR PURPOSE.  See the
   GNU Lesser General Public License for more details.
   
   Cite this work as:
   * C. Bannwarth, E. Caldeweyher, S. Ehlert, A. Hansen, P. Pracht,
     J. Seibert, S. Spicher, S. Grimme, WIREs Comput. Mol. Sci., 2020, 11,
     e01493. DOI: 10.1002/wcms.1493
   
   for GFN2-xTB:
   * C. Bannwarth, S. Ehlert and S. Grimme., J. Chem. Theory Comput., 2019,
     15, 1652-1671. DOI: 10.1021/acs.jctc.8b01176
   for GFN1-xTB:
   * S. Grimme, C. Bannwarth, P. Shushkov, J. Chem. Theory Comput., 2017,
     13, 1989-2009. DOI: 10.1021/acs.jctc.7b00118
   for GFN0-xTB:
   * P. Pracht, E. Caldeweyher, S. Ehlert, S. Grimme, ChemRxiv, 2019, preprint.
     DOI: 10.26434/chemrxiv.8326202.v1
   for GFN-FF:
   * S. Spicher and S. Grimme, Angew. Chem. Int. Ed., 2020, 59, 15665-15673.
     DOI: 10.1002/anie.202004239
   
   for ALPB and GBSA implicit solvation:
   * S. Ehlert, M. Stahn, S. Spicher, S. Grimme, J. Chem. Theory Comput.,
     2021, 17, 4250-4261. DOI: 10.1021/acs.jctc.1c00471
   
   for ddCOSMO and CPCM-X implicit solvation:
   * M. Stahn, S. Ehlert, S. Grimme, J. Phys. Chem. A,
     2023, XX, XXXX-XXXX. DOI: 10.1021/acs.jpca.3c04382
   
   for DFT-D4:
   * E. Caldeweyher, C. Bannwarth and S. Grimme, J. Chem. Phys., 2017,
     147, 034112. DOI: 10.1063/1.4993215
   * E. Caldeweyher, S. Ehlert, A. Hansen, H. Neugebauer, S. Spicher,
     C. Bannwarth and S. Grimme, J. Chem. Phys., 2019, 150, 154122.
     DOI: 10.1063/1.5090222
   * E. Caldeweyher, J.-M. Mewes, S. Ehlert and S. Grimme, Phys. Chem. Chem. Phys.
     2020, 22, 8499-8512. DOI: 10.1039/D0CP00502A
   
   for sTDA-xTB:
   * S. Grimme and C. Bannwarth, J. Chem. Phys., 2016, 145, 054103.
     DOI: 10.1063/1.4959605
   
   in the mass-spec context:
   * V. Asgeirsson, C. Bauer and S. Grimme, Chem. Sci., 2017, 8, 4879.
     DOI: 10.1039/c7sc00601b
   * J. Koopman and S. Grimme, ACS Omega 2019, 4, 12, 15120-15133.
     DOI: 10.1021/acsomega.9b02011
   
   for metadynamics refer to:
   * S. Grimme, J. Chem. Theory Comput., 2019, 155, 2847-2862
     DOI: 10.1021/acs.jctc.9b00143
   
   for SPH calculations refer to:
   * S. Spicher and S. Grimme, J. Chem. Theory Comput., 2021, 17, 1701-1714
     DOI: 10.1021/acs.jctc.0c01306
   
   for ONIOM refer to:
   * C. Plett, A. Katbashev, S. Ehlert, S. Grimme, M. Bursch,
     Phys. Chem. Chem. Phys., 2023, 25, 17860-17868. DOI: 10.1039/D3CP02178E
   
   for DIPRO refer to:
   * J. Kohn, N. Gildemeister, S. Grimme, D. Fazzi, A. Hansen,
     J. Chem. Phys., 2023, just accepted.
   
   for PTB refer to:
   * S. Grimme, M. Mueller, A. Hansen, J. Chem. Phys., 2023, 158, 124111.
     DOI: 10.1063/5.0137838
   
   with help from (in alphabetical order)
   P. Atkinson, C. Bannwarth, F. Bohle, G. Brandenburg, E. Caldeweyher
   M. Checinski, S. Dohm, S. Ehlert, S. Ehrlich, I. Gerasimov, C. Hölzer
   A. Katbashev, J. Kohn, J. Koopman, C. Lavigne, S. Lehtola, F. März, M. Müller,
   F. Musil, H. Neugebauer, J. Pisarek, C. Plett, P. Pracht, F. Pultar,
   J. Seibert, P. Shushkov, S. Spicher, M. Stahn, M. Steiner, T. Strunk,
   J. Stückrath, T. Rose, and J. Unsleber
   
 * started run on 2025/05/05 at 16:42:16.107     
   ID    Z sym.   atoms
    1    7 N      1, 9, 15, 18, 19, 27, 28, 36, 40, 47, 53, 56, 57, 69, 73,
                  80, 86, 91
    2    6 C      2, 3, 5, 6, 10, 11, 13, 14, 16, 17, 20, 21, 23-26, 29, 30,
                  32-35, 37, 38, 41, 42, 44, 46, 48, 49, 51, 52, 54, 55, 58,
                  59, 61-67, 70, 71, 74, 75, 77-79, 81, 82, 84, 87, 88, 90,
                  92, 93, 95-97
    3    8 O      4, 7, 8, 12, 22, 31, 39, 43, 45, 50, 60, 68, 72, 76, 83,
                  85, 89, 94
    4    1 H      98-214

           -------------------------------------------------
          |                Calculation Setup                |
           -------------------------------------------------

          program call               : xtb /tmp/tmp47cb0vm9/HIE/input.xyz --alpb ether --chrg 1 --input /tmp/tmp47cb0vm9/HIE/constraints.inp --gfn 2
          hostname                   : fedora
          coordinate file            : /tmp/tmp47cb0vm9/HIE/input.xyz
          omp threads                :                    32


molecular fragmentation (1/2 indicates fragments):
111111111111111111222222222222222222222222222222222222222222222222222222
222222222222222222222222222222222211111111111222222222222222222222222222
2222222222222222222222222222222222222222222222222222222222222222222222
# atoms in fragment 1/2:    29   185
 fragment masses (1/2) :      251.22     1139.47
CMA distance (Bohr)    :  15.190
constraining FC (au)   :  0.0500
########################################################################
[WARNING] Please study the warnings concerning your input carefully
-1- readin_getIntValue: could not parse 'S'
########################################################################

           -------------------------------------------------
          |                 G F N 2 - x T B                 |
           -------------------------------------------------

        Reference                      10.1021/acs.jctc.8b01176
      * Hamiltonian:
        H0-scaling (s, p, d)           1.850000    2.230000    2.230000
        zeta-weighting                 0.500000
      * Dispersion:
        s8                             2.700000
        a1                             0.520000
        a2                             5.000000
        s9                             5.000000
      * Repulsion:
        kExp                           1.500000    1.000000
        rExp                           1.000000
      * Coulomb:
        alpha                          2.000000
        third order                    shell-resolved
        anisotropic                    true
        a3                             3.000000
        a5                             4.000000
        cn-shift                       1.200000
        cn-exp                         4.000000
        max-rad                        5.000000

      * Solvation model:               ALPB
        Solvent                        ether
        Parameter file                 internal GFN2-xTB/ALPB
        Dielectric constant                4.3300E+00
        Reference state                gsolv [1 M gas/solution]
        Free energy shift                  4.9534E-03 Eh       3.1083E+00 kcal/mol
        Temperature                        2.9815E+02 K
        Density                            7.1300E-01 kg/L
        Solvent mass                       7.4120E+01 g/mol
        Interaction kernel             P16
        Born radius scaling (c1)           1.5847E+00
        Born radii integrator          GBOBC
        Born offset                        0.0000E+00 a0       0.0000E+00 AA
        H-bond correction              true
        Ion screening                  false
        Surface tension                    1.0000E-05 Eh       1.5569E+01 dyn/cm
        Grid points                               230 per atom

          ...................................................
          :                      SETUP                      :
          :.................................................:
          :  # basis functions                 505          :
          :  # atomic orbitals                 505          :
          :  # shells                          311          :
          :  # electrons                       558          :
          :  max. iterations                   250          :
          :  Hamiltonian                  GFN2-xTB          :
          :  restarted?                      false          :
          :  GBSA solvation                   true          :
          :  PC potential                    false          :
          :  electronic temp.          300.0000000     K    :
          :  accuracy                    1.0000000          :
          :  -> integral cutoff          0.2500000E+02      :
          :  -> integral neglect         0.1000000E-07      :
          :  -> SCF convergence          0.1000000E-05 Eh   :
          :  -> wf. convergence          0.1000000E-03 e    :
          :  Broyden damping             0.4000000          :
          :  net charge                          1          :
          :  unpaired electrons                  0          :
          ...................................................

 iter      E             dE          RMSdq      gap      omega  full diag
   1   -316.5793395 -0.316579E+03  0.466E+00    0.13       0.0  T
   2   -313.0997426  0.347960E+01  0.422E+00    0.02       1.0  T
   3   -317.4195472 -0.431980E+01  0.271E+00    0.06       1.0  T
   4   -318.2073549 -0.787808E+00  0.209E+00    0.16       1.0  T
   5   -318.1185161  0.888388E-01  0.199E+00    0.08       1.0  T
   6   -318.2034105 -0.848944E-01  0.179E+00    0.07       1.0  T
   7   -318.4916944 -0.288284E+00  0.167E+00    0.12       1.0  T
   8   -318.5056209 -0.139265E-01  0.161E+00    0.14       1.0  T
   9   -319.0148375 -0.509217E+00  0.103E+00    0.22       1.0  T
  10   -318.9560354  0.588021E-01  0.101E+00    0.01       1.0  T
  11   -319.0281134 -0.720780E-01  0.921E-01    0.21       1.0  T
  12   -319.1054787 -0.773653E-01  0.624E-01    0.11       1.0  T
  13   -318.2653016  0.840177E+00  0.170E+00    0.06       1.0  T
  14   -319.1009379 -0.835636E+00  0.632E-01    0.10       1.0  T
  15   -319.1198487 -0.189108E-01  0.559E-01    0.10       1.0  T
  16   -319.1442977 -0.244490E-01  0.475E-01    0.08       1.0  T
  17   -319.1450733 -0.775626E-03  0.468E-01    0.08       1.0  T
  18   -319.1870830 -0.420097E-01  0.297E-01    0.05       1.0  T
  19   -319.1855695  0.151354E-02  0.302E-01    0.03       1.0  T
  20   -319.1521090  0.334605E-01  0.442E-01    0.02       1.0  T
  21   -319.1820665 -0.299576E-01  0.320E-01    0.04       1.0  T
  22   -319.1706165  0.114500E-01  0.340E-01    0.06       1.0  T
  23   -319.1784646 -0.784811E-02  0.316E-01    0.06       1.0  T
  24   -319.1830369 -0.457231E-02  0.292E-01    0.05       1.0  T
  25   -319.1914986 -0.846165E-02  0.245E-01    0.04       1.0  T
  26   -319.1893250  0.217358E-02  0.257E-01    0.05       1.0  T
  27   -319.1938965 -0.457152E-02  0.226E-01    0.04       1.0  T
  28   -319.1945711 -0.674529E-03  0.220E-01    0.05       1.0  T
  29   -319.1996909 -0.511990E-02  0.181E-01    0.04       1.0  T
  30   -319.2011361 -0.144518E-02  0.166E-01    0.04       1.0  T
  31   -319.2033618 -0.222568E-02  0.149E-01    0.04       1.0  T
  32   -319.2055990 -0.223720E-02  0.122E-01    0.04       1.0  T
  33   -319.1109270  0.946720E-01  0.542E-01    0.00       1.0  T
  34   -319.2049087 -0.939817E-01  0.126E-01    0.04       1.0  T
  35   -319.2020710  0.283767E-02  0.150E-01    0.05       1.0  T
  36   -319.2058328 -0.376174E-02  0.110E-01    0.04       1.0  T
  37   -319.2082260 -0.239322E-02  0.697E-02    0.04       1.0  T
  38   -319.2094998 -0.127385E-02  0.278E-02    0.04       1.0  T
  39   -319.2095923 -0.924489E-04  0.204E-02    0.04       1.0  T
  40   -319.2095683  0.240295E-04  0.233E-02    0.04       1.0  T
  41   -319.2097108 -0.142538E-03  0.902E-03    0.04       1.0  T
  42   -319.2097317 -0.209236E-04  0.474E-03    0.04       1.4  T
  43   -319.2097338 -0.204548E-05  0.407E-03    0.04       1.7  T
  44   -319.2097384 -0.465917E-05  0.164E-03    0.04       4.2  T
  45   -319.2097390 -0.590289E-06  0.886E-04    0.04       7.7  T
  46   -319.2097392 -0.203324E-06  0.423E-04    0.04      16.1  T

   *** convergence criteria satisfied after 46 iterations ***

         #    Occupation            Energy/Eh            Energy/eV
      -------------------------------------------------------------
         1        2.0000           -0.7595342             -20.6680
       ...           ...                  ...                  ...
       273        1.9910           -0.3994556             -10.8697
       274        1.9437           -0.3976928             -10.8218
       275        1.9015           -0.3971404             -10.8067
       276        1.8940           -0.3970665             -10.8047
       277        1.8815           -0.3969546             -10.8017
       278        1.7899           -0.3963633             -10.7856
       279        1.5685           -0.3955542             -10.7636 (HOMO)
       280        0.8566           -0.3940536             -10.7227 (LUMO)
       281        0.1816           -0.3921394             -10.6707
       282                         -0.3145912              -8.5605
       283                         -0.3100874              -8.4379
       284                         -0.3083368              -8.3903
       ...                                ...                  ...
       505                          1.1204137              30.4880
      -------------------------------------------------------------
                  HL-Gap            0.0015006 Eh            0.0408 eV
             Fermi-level           -0.3943279 Eh          -10.7302 eV

 SCC (total)                   0 d,  0 h,  0 min,  1.607 sec
 SCC setup                      ...        0 min,  0.003 sec (  0.198%)
 Dispersion                     ...        0 min,  0.009 sec (  0.588%)
 classical contributions        ...        0 min,  0.001 sec (  0.033%)
 integral evaluation            ...        0 min,  0.014 sec (  0.899%)
 iterations                     ...        0 min,  1.531 sec ( 95.222%)
 molecular gradient             ...        0 min,  0.047 sec (  2.916%)
 printout                       ...        0 min,  0.002 sec (  0.142%)

         :::::::::::::::::::::::::::::::::::::::::::::::::::::
         ::                     SUMMARY                     ::
         :::::::::::::::::::::::::::::::::::::::::::::::::::::
         :: total energy            -314.517508120273 Eh    ::
         :: total w/o Gsasa/hb      -314.436068278609 Eh    ::
         :: gradient norm              0.965883387209 Eh/a0 ::
         :: HOMO-LUMO gap              0.040832532909 eV    ::
         ::.................................................::
         :: SCC energy              -319.188295998130 Eh    ::
         :: -> isotropic ES            0.851342231340 Eh    ::
         :: -> anisotropic ES          0.037180339303 Eh    ::
         :: -> anisotropic XC          0.160430276208 Eh    ::
         :: -> dispersion             -0.253937369855 Eh    ::
         :: -> Gsolv                  -0.227894598490 Eh    ::
         ::    -> Gelec               -0.146454756827 Eh    ::
         ::    -> Gsasa               -0.066508462613 Eh    ::
         ::    -> Ghb                 -0.019884816627 Eh    ::
         ::    -> Gshift               0.004953437577 Eh    ::
         :: repulsion energy           4.670787877858 Eh    ::
         :: add. restraining           0.000000000000 Eh    ::
         :: total charge               1.000000000000 e     ::
         :::::::::::::::::::::::::::::::::::::::::::::::::::::

           -------------------------------------------------
          |                Property Printout                |
           -------------------------------------------------

    * Orbital Energies and Occupations

         #    Occupation            Energy/Eh            Energy/eV
      -------------------------------------------------------------
         1        2.0000           -0.7595342             -20.6680
       ...           ...                  ...                  ...
       267        2.0000           -0.4117932             -11.2055
       268        2.0000           -0.4101487             -11.1607
       269        2.0000           -0.4096744             -11.1478
       270        2.0000           -0.4093077             -11.1378
       271        1.9985           -0.4011581             -10.9161
       272        1.9932           -0.3997183             -10.8769
       273        1.9910           -0.3994556             -10.8697
       274        1.9437           -0.3976928             -10.8218
       275        1.9015           -0.3971404             -10.8067
       276        1.8940           -0.3970665             -10.8047
       277        1.8815           -0.3969546             -10.8017
       278        1.7899           -0.3963633             -10.7856
       279        1.5685           -0.3955542             -10.7636 (HOMO)
       280        0.8566           -0.3940536             -10.7227 (LUMO)
       281        0.1816           -0.3921394             -10.6707
       282                         -0.3145912              -8.5605
       283                         -0.3100874              -8.4379
       284                         -0.3083368              -8.3903
       285                         -0.2981449              -8.1129
       286                         -0.2953708              -8.0374
       287                         -0.2498826              -6.7997
       288                         -0.2498334              -6.7983
       289                         -0.2484390              -6.7604
       290                         -0.2460531              -6.6954
       ...                                ...                  ...
       505                          1.1204137              30.4880
      -------------------------------------------------------------
                  HL-Gap            0.0015006 Eh            0.0408 eV
             Fermi-level           -0.3943279 Eh          -10.7302 eV

     #   Z          covCN         q      C6AA      α(0)
     1   7 N        2.626    -0.342    28.814     7.972
     2   6 C        3.797     0.028    20.113     6.386
     3   6 C        2.756     0.270    22.446     7.758
     4   8 O        0.857    -0.502    23.840     6.546
     5   6 C        3.802    -0.082    22.065     6.688
     6   6 C        2.688     0.368    20.758     7.456
     7   8 O        0.856    -0.506    23.929     6.558
     8   8 O        0.855    -0.568    25.340     6.749
     9   7 N        2.699    -0.144    24.122     7.294
    10   6 C        3.784     0.025    20.170     6.397
    11   6 C        2.761     0.205    23.639     7.962
    12   8 O        0.857    -0.334    20.413     6.058
    13   6 C        3.795    -0.070    21.846     6.656
    14   6 C        3.059     0.053    26.750     8.482
    15   7 N        1.883    -0.265    27.734     7.807
    16   6 C        2.930     0.004    27.934     8.668
    17   6 C        2.034     0.166    27.023     8.396
    18   7 N        1.914    -0.248    27.307     7.748
    19   7 N        2.628    -0.374    29.661     8.088
    20   6 C        3.774     0.028    20.135     6.394
    21   6 C        2.760     0.199    23.768     7.984
    22   8 O        0.856    -0.356    20.822     6.118
    23   6 C        3.800    -0.079    22.008     6.679
    24   6 C        3.813    -0.078    21.979     6.673
    25   6 C        3.813    -0.095    22.300     6.721
    26   6 C        3.746    -0.049    21.514     6.616
    27   7 N        3.493    -0.164    24.537     7.357
    28   7 N        2.629    -0.343    28.843     7.976
    29   6 C        3.786     0.026    20.149     6.393
    30   6 C        2.764     0.201    23.721     7.976
    31   8 O        0.856    -0.357    20.848     6.122
    32   6 C        3.824    -0.072    21.850     6.652
    33   6 C        3.856    -0.016    20.825     6.490
    34   6 C        3.776    -0.125    22.929     6.823
    35   6 C        3.767    -0.123    22.890     6.819
    36   7 N        2.627    -0.319    28.213     7.889
    37   6 C        3.742    -0.028    21.144     6.560
    38   6 C        2.750     0.257    22.667     7.796
    39   8 O        0.856    -0.477    23.278     6.469
    40   7 N        2.699    -0.167    24.611     7.368
    41   6 C        3.803     0.001    20.567     6.457
    42   6 C        2.776     0.270    22.445     7.760
    43   8 O        0.865    -0.483    23.400     6.486
    44   6 C        3.730     0.111    18.849     6.198
    45   8 O        1.659    -0.483    22.520     6.406
    46   6 C        3.767    -0.133    23.090     6.848
    47   7 N        2.710    -0.171    24.702     7.382
    48   6 C        3.820     0.019    20.238     6.402
    49   6 C        2.766     0.278    22.298     7.733
    50   8 O        0.863    -0.462    22.961     6.425
    51   6 C        3.811    -0.074    21.910     6.663
    52   6 C        3.032     0.047    26.923     8.511
    53   7 N        1.915    -0.291    28.390     7.900
    54   6 C        3.053    -0.024    28.559     8.764
    55   6 C        2.111     0.055    29.474     8.773
    56   7 N        2.755    -0.062    22.431     7.034
    57   7 N        2.691    -0.186    25.035     7.431
    58   6 C        3.791     0.017    20.299     6.416
    59   6 C        2.759     0.275    22.351     7.742
    60   8 O        0.861    -0.463    22.974     6.426
    61   6 C        3.810    -0.078    21.986     6.674
    62   6 C        2.961     0.011    27.777     8.645
    63   6 C        2.923    -0.043    29.062     8.841
    64   6 C        2.918    -0.044    29.092     8.845
    65   6 C        2.912    -0.066    29.633     8.926
    66   6 C        2.914    -0.055    29.357     8.885
    67   6 C        2.845     0.165    24.438     8.102
    68   8 O        1.662    -0.394    20.734     6.147
    69   7 N        2.688    -0.171    24.699     7.381
    70   6 C        3.756    -0.027    21.115     6.552
    71   6 C        2.743     0.266    22.514     7.769
    72   8 O        0.858    -0.477    23.290     6.470
    73   7 N        2.674    -0.190    25.121     7.444
    74   6 C        3.787     0.017    20.310     6.419
    75   6 C        2.749     0.274    22.363     7.743
    76   8 O        0.859    -0.474    23.214     6.460
    77   6 C        3.858    -0.014    20.778     6.483
    78   6 C        3.764    -0.115    22.740     6.797
    79   6 C        3.768    -0.121    22.847     6.812
    80   7 N        2.679    -0.171    24.706     7.382
    81   6 C        3.773     0.014    20.374     6.432
    82   6 C        2.759     0.134    25.049     8.196
    83   8 O        0.856    -0.368    21.043     6.150
    84   6 C        3.666     0.057    19.866     6.392
    85   8 O        1.649    -0.490    22.675     6.428
    86   7 N        2.632    -0.341    28.775     7.967
    87   6 C        3.785     0.036    19.981     6.367
    88   6 C        2.746     0.262    22.575     7.780
    89   8 O        0.860    -0.478    23.297     6.471
    90   6 C        3.760    -0.120    22.850     6.814
    91   7 N        2.686    -0.177    24.825     7.400
    92   6 C        3.799     0.027    20.128     6.388
    93   6 C        2.767     0.194    23.849     7.998
    94   8 O        0.855    -0.388    21.442     6.208
    95   6 C        3.861    -0.015    20.801     6.486
    96   6 C        3.768    -0.129    23.011     6.837
    97   6 C        3.760    -0.127    22.986     6.835
    98   1 H        0.980     0.049     2.329     2.385
    99   1 H        0.980    -0.017     3.364     2.866
   100   1 H        0.980    -0.006     3.163     2.779
   101   1 H        0.980     0.009     2.902     2.662
   102   1 H        0.980     0.001     3.027     2.719
   103   1 H        0.980    -0.020     3.413     2.887
   104   1 H        0.980     0.003     3.002     2.707
   105   1 H        0.980    -0.018     3.387     2.876
   106   1 H        0.980     0.015     2.807     2.618
   107   1 H        0.860     0.192     1.146     1.677
   108   1 H        0.860     0.187     1.177     1.700
   109   1 H        0.926     0.074     2.046     2.237
   110   1 H        0.926     0.076     2.020     2.222
   111   1 H        0.927     0.081     1.971     2.195
   112   1 H        0.861     0.237     0.934     1.514
   113   1 H        0.927     0.089     1.885     2.147
   114   1 H        0.929     0.084     1.942     2.179
   115   1 H        0.926     0.096     1.824     2.112
   116   1 H        0.927     0.098     1.799     2.097
   117   1 H        0.929     0.086     1.922     2.168
   118   1 H        0.860     0.159     1.341     1.814
   119   1 H        0.860     0.168     1.286     1.777
   120   1 H        0.927     0.050     2.317     2.381
   121   1 H        0.929     0.074     2.038     2.232
   122   1 H        0.927     0.064     2.147     2.292
   123   1 H        0.927     0.062     2.173     2.305
   124   1 H        0.927     0.060     2.205     2.322
   125   1 H        0.927     0.061     2.187     2.312
   126   1 H        0.927     0.069     2.092     2.262
   127   1 H        0.927     0.072     2.066     2.248
   128   1 H        0.927     0.111     1.688     2.032
   129   1 H        0.927     0.112     1.676     2.024
   130   1 H        0.860     0.192     1.146     1.677
   131   1 H        0.860     0.165     1.302     1.787
   132   1 H        0.927     0.076     2.023     2.224
   133   1 H        0.929     0.062     2.173     2.305
   134   1 H        0.927     0.048     2.345     2.395
   135   1 H        0.927     0.051     2.306     2.375
   136   1 H        0.927     0.049     2.329     2.386
   137   1 H        0.927     0.048     2.343     2.394
   138   1 H        0.927     0.041     2.436     2.441
   139   1 H        0.927     0.048     2.345     2.395
   140   1 H        0.927     0.044     2.390     2.418
   141   1 H        0.927     0.040     2.449     2.447
   142   1 H        0.927     0.040     2.449     2.447
   143   1 H        0.860     0.184     1.190     1.709
   144   1 H        0.860     0.170     1.271     1.766
   145   1 H        0.927     0.067     2.119     2.276
   146   1 H        0.927     0.082     1.958     2.188
   147   1 H        0.861     0.214     1.036     1.595
   148   1 H        0.927     0.086     1.920     2.167
   149   1 H        0.927     0.071     2.071     2.250
   150   1 H        0.804     0.326     0.648     1.265
   151   1 H        0.927     0.052     2.294     2.368
   152   1 H        0.927     0.041     2.437     2.441
   153   1 H        0.927     0.072     2.065     2.247
   154   1 H        0.861     0.236     0.940     1.519
   155   1 H        0.927     0.090     1.874     2.141
   156   1 H        0.927     0.079     1.987     2.204
   157   1 H        0.927     0.086     1.916     2.164
   158   1 H        0.929     0.063     2.165     2.301
   159   1 H        0.861     0.214     1.036     1.594
   160   1 H        0.927     0.086     1.914     2.163
   161   1 H        0.927     0.090     1.878     2.143
   162   1 H        0.927     0.081     1.972     2.196
   163   1 H        0.929     0.061     2.184     2.311
   164   1 H        0.929     0.069     2.101     2.267
   165   1 H        0.929     0.057     2.230     2.335
   166   1 H        0.929     0.077     2.010     2.217
   167   1 H        0.807     0.350     0.587     1.204
   168   1 H        0.861     0.203     1.092     1.637
   169   1 H        0.927     0.118     1.625     1.994
   170   1 H        0.927     0.105     1.741     2.063
   171   1 H        0.861     0.213     1.042     1.599
   172   1 H        0.926     0.071     2.077     2.254
   173   1 H        0.927     0.062     2.179     2.308
   174   1 H        0.927     0.049     2.335     2.389
   175   1 H        0.927     0.036     2.498     2.472
   176   1 H        0.927     0.051     2.301     2.372
   177   1 H        0.927     0.046     2.370     2.407
   178   1 H        0.927     0.047     2.357     2.401
   179   1 H        0.927     0.056     2.251     2.346
   180   1 H        0.861     0.212     1.046     1.602
   181   1 H        0.927     0.089     1.891     2.151
   182   1 H        0.929     0.123     1.591     1.972
   183   1 H        0.927     0.066     2.133     2.284
   184   1 H        0.927     0.083     1.944     2.180
   185   1 H        0.804     0.343     0.606     1.222
   186   1 H        0.860     0.167     1.292     1.781
   187   1 H        0.860     0.174     1.252     1.753
   188   1 H        0.927     0.052     2.289     2.366
   189   1 H        0.927     0.060     2.195     2.317
   190   1 H        0.927     0.061     2.184     2.311
   191   1 H        0.927     0.059     2.205     2.322
   192   1 H        0.861     0.212     1.047     1.603
   193   1 H        0.927     0.120     1.611     1.985
   194   1 H        0.929     0.072     2.058     2.243
   195   1 H        0.927     0.063     2.167     2.302
   196   1 H        0.927     0.051     2.305     2.374
   197   1 H        0.927     0.062     2.173     2.305
   198   1 H        0.927     0.052     2.295     2.369
   199   1 H        0.927     0.051     2.313     2.378
   200   1 H        0.927     0.061     2.191     2.315
   201   1 H        0.927     0.040     2.448     2.447
   202   1 H        0.983     0.029     2.596     2.518
   203   1 H        0.980     0.019     2.739     2.586
   204   1 H        0.980     0.006     2.946     2.682
   205   1 H        0.980    -0.011     3.245     2.815
   206   1 H        0.980    -0.013     3.280     2.830
   207   1 H        0.980     0.034     2.530     2.485
   208   1 H        0.980    -0.013     3.285     2.832
   209   1 H        0.980     0.040     2.438     2.440
   210   1 H        0.980    -0.017     3.355     2.862
   211   1 H        0.860     0.303     0.705     1.316
   212   1 H        0.860     0.303     0.705     1.315
   213   1 H        0.860     0.302     0.708     1.318
   214   1 H        0.858     0.228     0.974     1.546

 Mol. C6AA /au·bohr⁶  :     399020.999513
 Mol. C8AA /au·bohr⁸  :    8697952.410821
 Mol. α(0) /au        :        951.064137


Wiberg/Mayer (AO) data.
largest (>0.10) Wiberg bond orders for each atom

 ---------------------------------------------------------------------------
     #   Z sym  total        # sym  WBO       # sym  WBO       # sym  WBO
 ---------------------------------------------------------------------------
     1   7 N    2.986 --     2 C    1.012   108 H    0.949   107 H    0.916
     2   6 C    3.964 --     1 N    1.012     5 C    0.983     3 C    0.957
                           109 H    0.921
     3   6 C    3.949 --     4 O    1.563     9 N    1.339     2 C    0.957
     4   8 O    1.922 --     3 C    1.563     9 N    0.187
     5   6 C    3.892 --     2 C    0.983   110 H    0.962   111 H    0.959
                             6 C    0.885
     6   6 C    3.913 --     7 O    1.592     8 O    1.413     5 C    0.885
     7   8 O    1.909 --     6 C    1.592     8 O    0.218
     8   8 O    1.701 --     6 C    1.413     7 O    0.218
     9   7 N    3.507 --     3 C    1.339    10 C    1.001   112 H    0.874
                             4 O    0.187
    10   6 C    3.966 --     9 N    1.001    11 C    0.973   113 H    0.952
                            13 C    0.909
    11   6 C    3.898 --    12 O    1.926    10 C    0.973   114 H    0.947
    12   8 O    2.072 --    11 C    1.926
    13   6 C    3.981 --    14 C    1.039   115 H    0.958   116 H    0.939
                            10 C    0.909
    14   6 C    3.897 --    16 C    1.494    15 N    1.157    13 C    1.039
                            17 C    0.130
    15   7 N    3.003 --    17 C    1.626    14 C    1.157    18 N    0.131
    16   6 C    3.899 --    14 C    1.494    18 N    1.210   117 H    0.964
                            17 C    0.133
    17   6 C    3.581 --    18 N    1.636    15 N    1.626    16 C    0.133
                            14 C    0.130
    18   7 N    3.055 --    17 C    1.636    16 C    1.210    15 N    0.131
    19   7 N    2.981 --    20 C    1.006   118 H    0.961   119 H    0.956
    20   6 C    3.981 --    19 N    1.006    21 C    0.976   120 H    0.961
                            23 C    0.956
    21   6 C    3.889 --    22 O    1.903    20 C    0.976   121 H    0.950
    22   8 O    2.051 --    21 C    1.903
    23   6 C    3.990 --    24 C    1.007   122 H    0.975   123 H    0.973
                            20 C    0.956
    24   6 C    3.994 --    23 C    1.007    25 C    1.005   124 H    0.974
                           125 H    0.972
    25   6 C    3.988 --    26 C    1.009    24 C    1.005   126 H    0.972
                           127 H    0.969
    26   6 C    3.911 --    25 C    1.009   128 H    0.964   129 H    0.959
                            27 N    0.953
    27   7 N    3.653 --    26 C    0.953   213 H    0.895   211 H    0.895
                           212 H    0.890
    28   7 N    2.972 --    29 C    1.016   131 H    0.956   130 H    0.934
    29   6 C    3.975 --    28 N    1.016    30 C    0.979   132 H    0.950
                            32 C    0.948
    30   6 C    3.894 --    31 O    1.908    29 C    0.979   133 H    0.948
    31   8 O    2.048 --    30 C    1.908
    32   6 C    3.975 --    33 C    0.988   135 H    0.973   134 H    0.970
                            29 C    0.948
    33   6 C    3.995 --    35 C    1.010    34 C    1.009    32 C    0.988
                           136 H    0.959
    34   6 C    3.992 --    33 C    1.009   138 H    0.985   137 H    0.983
                           139 H    0.981
    35   6 C    3.996 --    33 C    1.010   140 H    0.985   141 H    0.984
                           142 H    0.981
    36   7 N    2.961 --    37 C    1.025   144 H    0.956   143 H    0.953
    37   6 C    3.978 --    36 N    1.025    38 C    0.974   146 H    0.957
                           145 H    0.945
    38   6 C    3.949 --    39 O    1.626    40 N    1.269    37 C    0.974
    39   8 O    1.956 --    38 C    1.626    40 N    0.189
    40   7 N    3.456 --    38 C    1.269    41 C    0.991   147 H    0.926
                            39 O    0.189
    41   6 C    3.962 --    40 N    0.991    44 C    0.946   148 H    0.944
                            42 C    0.930
    42   6 C    3.953 --    43 O    1.638    47 N    1.308    41 C    0.930
    43   8 O    1.953 --    42 C    1.638    47 N    0.203
    44   6 C    3.951 --    46 C    1.009    45 O    0.981   149 H    0.960
                            41 C    0.946
    45   8 O    1.941 --    44 C    0.981   150 H    0.811
    46   6 C    3.992 --    44 C    1.009   152 H    0.982   153 H    0.980
                           151 H    0.980
    47   7 N    3.477 --    42 C    1.308    48 C    0.975   154 H    0.889
                            43 O    0.203
    48   6 C    3.965 --    47 N    0.975    51 C    0.956   155 H    0.953
                            49 C    0.949
    49   6 C    3.951 --    50 O    1.649    57 N    1.281    48 C    0.949
    50   8 O    1.984 --    49 C    1.649    57 N    0.194
    51   6 C    3.980 --    52 C    1.010   157 H    0.958    48 C    0.956
                           156 H    0.956
    52   6 C    3.903 --    54 C    1.555    53 N    1.205    51 C    1.010
    53   7 N    2.955 --    55 C    1.558    52 C    1.205
    54   6 C    3.893 --    52 C    1.555    56 N    1.178   158 H    0.967
                            55 C    0.113
    55   6 C    3.136 --    53 N    1.558    56 N    1.349    54 C    0.113
    56   7 N    3.584 --    55 C    1.349    54 C    1.178   214 H    0.875
    57   7 N    3.459 --    49 C    1.281    58 C    0.976   159 H    0.927
                            50 O    0.194
    58   6 C    3.948 --    57 N    0.976    61 C    0.957   160 H    0.950
                            59 C    0.929
    59   6 C    3.949 --    60 O    1.663    69 N    1.282    58 C    0.929
    60   8 O    1.980 --    59 C    1.663    69 N    0.195
    61   6 C    3.977 --    62 C    1.019   162 H    0.968    58 C    0.957
                           161 H    0.957
    62   6 C    3.894 --    64 C    1.375    63 C    1.374    61 C    1.019
    63   6 C    3.968 --    65 C    1.470    62 C    1.374   163 H    0.967
    64   6 C    3.973 --    66 C    1.481    62 C    1.375   164 H    0.969
    65   6 C    3.948 --    63 C    1.470    67 C    1.333   165 H    0.961
    66   6 C    3.937 --    64 C    1.481    67 C    1.316   166 H    0.968
    67   6 C    3.865 --    65 C    1.333    66 C    1.316    68 O    1.116
    68   8 O    2.094 --    67 C    1.116   167 H    0.838
    69   7 N    3.459 --    59 C    1.282    70 C    0.993   168 H    0.931
                            60 O    0.195
    70   6 C    3.959 --    69 N    0.993    71 C    0.971   170 H    0.952
                           169 H    0.938
    71   6 C    3.949 --    72 O    1.657    73 N    1.256    70 C    0.971
    72   8 O    1.964 --    71 C    1.657    73 N    0.202
    73   7 N    3.433 --    71 C    1.256    74 C    0.962   171 H    0.912
                            72 O    0.202
    74   6 C    3.963 --    73 N    0.962   172 H    0.961    77 C    0.960
                            75 C    0.950
    75   6 C    3.947 --    76 O    1.625    80 N    1.291    74 C    0.950
    76   8 O    1.975 --    75 C    1.625    80 N    0.194
    77   6 C    3.989 --    79 C    1.012    78 C    1.006    74 C    0.960
                           173 H    0.960
    78   6 C    3.994 --    77 C    1.006   174 H    0.985   175 H    0.984
                           176 H    0.974
    79   6 C    3.993 --    77 C    1.012   177 H    0.984   179 H    0.983
                           178 H    0.981
    80   7 N    3.466 --    75 C    1.291    81 C    0.971   180 H    0.930
                            76 O    0.194
    81   6 C    3.961 --    80 N    0.971    82 C    0.964    84 C    0.949
                           181 H    0.942
    82   6 C    3.859 --    83 O    1.882    81 C    0.964   182 H    0.860
    83   8 O    2.041 --    82 C    1.882
    84   6 C    3.951 --    85 O    1.003   184 H    0.971   183 H    0.969
                            81 C    0.949
    85   8 O    1.935 --    84 C    1.003   185 H    0.802
    86   7 N    2.965 --    87 C    1.019   186 H    0.955   187 H    0.941
    87   6 C    3.966 --    86 N    1.019    90 C    0.987   188 H    0.941
                            88 C    0.937
    88   6 C    3.942 --    89 O    1.662    91 N    1.273    87 C    0.937
    89   8 O    1.972 --    88 C    1.662    91 N    0.196
    90   6 C    3.986 --    87 C    0.987   189 H    0.984   190 H    0.978
                           191 H    0.977
    91   7 N    3.451 --    88 C    1.273    92 C    0.983   192 H    0.923
                            89 O    0.196
    92   6 C    3.966 --    93 C    1.006    91 N    0.983    95 C    0.951
                           193 H    0.909
    93   6 C    3.899 --    94 O    1.864    92 C    1.006   194 H    0.953
    94   8 O    2.016 --    93 C    1.864
    95   6 C    3.986 --    96 C    1.013    97 C    1.006   195 H    0.961
                            92 C    0.951
    96   6 C    3.993 --    95 C    1.013   196 H    0.984   198 H    0.982
                           197 H    0.979
    97   6 C    3.994 --    95 C    1.006   201 H    0.986   200 H    0.983
                           199 H    0.981
    98   1 H    0.996 --   202 H    0.887
    99   1 H    1.000 --   203 H    0.974
   100   1 H    1.000 --   204 H    0.989
   101   1 H    1.000 --   205 H    0.938
   102   1 H    1.000 --   206 H    0.966
   103   1 H    1.000 --   207 H    0.914
   104   1 H    1.000 --   208 H    0.941
   105   1 H    0.999 --   209 H    0.885
   106   1 H    1.000 --   210 H    0.928
   107   1 H    0.961 --     1 N    0.916
   108   1 H    0.963 --     1 N    0.949
   109   1 H    0.966 --     2 C    0.921
   110   1 H    0.992 --     5 C    0.962
   111   1 H    0.992 --     5 C    0.959
   112   1 H    0.943 --     9 N    0.874
   113   1 H    0.992 --    10 C    0.952
   114   1 H    0.992 --    11 C    0.947
   115   1 H    0.989 --    13 C    0.958
   116   1 H    0.987 --    13 C    0.939
   117   1 H    0.993 --    16 C    0.964
   118   1 H    0.974 --    19 N    0.961
   119   1 H    0.972 --    19 N    0.956
   120   1 H    0.996 --    20 C    0.961
   121   1 H    0.994 --    21 C    0.950
   122   1 H    0.995 --    23 C    0.975
   123   1 H    0.996 --    23 C    0.973
   124   1 H    0.996 --    24 C    0.974
   125   1 H    0.996 --    24 C    0.972
   126   1 H    0.995 --    25 C    0.972
   127   1 H    0.995 --    25 C    0.969
   128   1 H    0.988 --    26 C    0.964
   129   1 H    0.987 --    26 C    0.959
   130   1 H    0.961 --    28 N    0.934
   131   1 H    0.971 --    28 N    0.956
   132   1 H    0.993 --    29 C    0.950
   133   1 H    0.995 --    30 C    0.948
   134   1 H    0.996 --    32 C    0.970
   135   1 H    0.997 --    32 C    0.973
   136   1 H    0.997 --    33 C    0.959
   137   1 H    0.998 --    34 C    0.983
   138   1 H    0.998 --    34 C    0.985
   139   1 H    0.996 --    34 C    0.981
   140   1 H    0.998 --    35 C    0.985
   141   1 H    0.998 --    35 C    0.984
   142   1 H    0.998 --    35 C    0.981
   143   1 H    0.963 --    36 N    0.953
   144   1 H    0.969 --    36 N    0.956
   145   1 H    0.980 --    37 C    0.945
   146   1 H    0.992 --    37 C    0.957
   147   1 H    0.954 --    40 N    0.926
   148   1 H    0.992 --    41 C    0.944
   149   1 H    0.994 --    44 C    0.960
   150   1 H    0.894 --    45 O    0.811
   151   1 H    0.997 --    46 C    0.980
   152   1 H    0.998 --    46 C    0.982
   153   1 H    0.994 --    46 C    0.980
   154   1 H    0.944 --    47 N    0.889
   155   1 H    0.991 --    48 C    0.953
   156   1 H    0.988 --    51 C    0.956
   157   1 H    0.991 --    51 C    0.958
   158   1 H    0.994 --    54 C    0.967
   159   1 H    0.954 --    57 N    0.927
   160   1 H    0.992 --    58 C    0.950
   161   1 H    0.987 --    61 C    0.957
   162   1 H    0.991 --    61 C    0.968
   163   1 H    0.996 --    63 C    0.967
   164   1 H    0.995 --    64 C    0.969
   165   1 H    0.996 --    65 C    0.961
   166   1 H    0.994 --    66 C    0.968
   167   1 H    0.877 --    68 O    0.838
   168   1 H    0.959 --    69 N    0.931
   169   1 H    0.985 --    70 C    0.938
   170   1 H    0.989 --    70 C    0.952
   171   1 H    0.955 --    73 N    0.912
   172   1 H    0.995 --    74 C    0.961
   173   1 H    0.996 --    77 C    0.960
   174   1 H    0.998 --    78 C    0.985
   175   1 H    0.999 --    78 C    0.984
   176   1 H    0.997 --    78 C    0.974
   177   1 H    0.998 --    79 C    0.984
   178   1 H    0.997 --    79 C    0.981
   179   1 H    0.997 --    79 C    0.983
   180   1 H    0.955 --    80 N    0.930
   181   1 H    0.992 --    81 C    0.942
   182   1 H    0.983 --    82 C    0.860
   183   1 H    0.995 --    84 C    0.969
   184   1 H    0.993 --    84 C    0.971
   185   1 H    0.883 --    85 O    0.802
   186   1 H    0.970 --    86 N    0.955
   187   1 H    0.968 --    86 N    0.941
   188   1 H    0.974 --    87 C    0.941
   189   1 H    0.994 --    90 C    0.984
   190   1 H    0.996 --    90 C    0.978
   191   1 H    0.996 --    90 C    0.977
   192   1 H    0.955 --    91 N    0.923
   193   1 H    0.985 --    92 C    0.909
   194   1 H    0.994 --    93 C    0.953
   195   1 H    0.995 --    95 C    0.961
   196   1 H    0.997 --    96 C    0.984
   197   1 H    0.996 --    96 C    0.979
   198   1 H    0.997 --    96 C    0.982
   199   1 H    0.997 --    97 C    0.981
   200   1 H    0.996 --    97 C    0.983
   201   1 H    0.998 --    97 C    0.986
   202   1 H    0.997 --    98 H    0.887
   203   1 H    1.000 --    99 H    0.974
   204   1 H    1.000 --   100 H    0.989
   205   1 H    1.000 --   101 H    0.938
   206   1 H    1.000 --   102 H    0.966
   207   1 H    0.999 --   103 H    0.914
   208   1 H    0.999 --   104 H    0.941
   209   1 H    0.998 --   105 H    0.885
   210   1 H    1.000 --   106 H    0.928
   211   1 H    0.908 --    27 N    0.895
   212   1 H    0.908 --    27 N    0.890
   213   1 H    0.909 --    27 N    0.895
   214   1 H    0.947 --    56 N    0.875
 ---------------------------------------------------------------------------

Topologies differ in total number of bonds
Writing topology from bond orders to xtbtopo.mol

molecular dipole:
                 x           y           z       tot (Debye)
 q only:      139.352      35.525      -3.310
   full:      138.270      35.235      -3.997     362.821
molecular quadrupole (traceless):
                xx          xy          yy          xz          yz          zz
 q only:    18841.688    7400.746   -8534.470    -639.681    -266.294  -10307.218
  q+dip:    18537.248    7282.232   -8425.855    -782.151    -295.570  -10111.392
   full:    18533.930    7279.037   -8424.809    -781.778    -295.037  -10109.121


           -------------------------------------------------
          | TOTAL ENERGY             -314.517508120273 Eh   |
          | GRADIENT NORM               0.965883387209 Eh/α |
          | HOMO-LUMO GAP               0.040832532909 eV   |
           -------------------------------------------------
########################################################################
[WARNING] Runtime exception occurred
-3- restart_readRestart: Dimension missmatch in restart file.
-2- restart_readRestart: Multiplicity missmatch in restart file.
-1- restart_readRestart: Number of electron missmatch in restart file.
########################################################################

------------------------------------------------------------------------
 * finished run on 2025/05/05 at 16:42:17.737     
------------------------------------------------------------------------
 total:
 * wall-time:     0 d,  0 h,  0 min,  1.630 sec
 *  cpu-time:     0 d,  0 h,  0 min, 49.241 sec
 * ratio c/w:    30.206 speedup
 SCF:
 * wall-time:     0 d,  0 h,  0 min,  1.610 sec
 *  cpu-time:     0 d,  0 h,  0 min, 48.706 sec
 * ratio c/w:    30.260 speedup

