      -----------------------------------------------------------      
     |                   =====================                   |     
     |                           x T B                           |     
     |                   =====================                   |     
     |                         S. Grimme                         |     
     |          Mulliken Center for Theoretical Chemistry        |     
     |                    University of Bonn                     |     
      -----------------------------------------------------------      

   * xtb version 6.7.1 (edcfbbe) compiled by 'conda@afd1a870197c' on 2025-04-11

   xtb is free software: you can redistribute it and/or modify it under
   the terms of the GNU Lesser General Public License as published by
   the Free Software Foundation, either version 3 of the License, or
   (at your option) any later version.
   
   xtb is distributed in the hope that it will be useful,
   but WITHOUT ANY WARRANTY; without even the implied warranty of
   MERCHANTABILITY or FITNESS FOR A PARTICULAR PURPOSE.  See the
   GNU Lesser General Public License for more details.
   
   Cite this work as:
   * C. Bannwarth, E. Caldeweyher, S. Ehlert, A. Hansen, P. Pracht,
     J. Seibert, S. Spicher, S. Grimme, WIREs Comput. Mol. Sci., 2020, 11,
     e01493. DOI: 10.1002/wcms.1493
   
   for GFN2-xTB:
   * C. Bannwarth, S. Ehlert and S. Grimme., J. Chem. Theory Comput., 2019,
     15, 1652-1671. DOI: 10.1021/acs.jctc.8b01176
   for GFN1-xTB:
   * S. Grimme, C. Bannwarth, P. Shushkov, J. Chem. Theory Comput., 2017,
     13, 1989-2009. DOI: 10.1021/acs.jctc.7b00118
   for GFN0-xTB:
   * P. Pracht, E. Caldeweyher, S. Ehlert, S. Grimme, ChemRxiv, 2019, preprint.
     DOI: 10.26434/chemrxiv.8326202.v1
   for GFN-FF:
   * S. Spicher and S. Grimme, Angew. Chem. Int. Ed., 2020, 59, 15665-15673.
     DOI: 10.1002/anie.202004239
   
   for ALPB and GBSA implicit solvation:
   * S. Ehlert, M. Stahn, S. Spicher, S. Grimme, J. Chem. Theory Comput.,
     2021, 17, 4250-4261. DOI: 10.1021/acs.jctc.1c00471
   
   for ddCOSMO and CPCM-X implicit solvation:
   * M. Stahn, S. Ehlert, S. Grimme, J. Phys. Chem. A,
     2023, XX, XXXX-XXXX. DOI: 10.1021/acs.jpca.3c04382
   
   for DFT-D4:
   * E. Caldeweyher, C. Bannwarth and S. Grimme, J. Chem. Phys., 2017,
     147, 034112. DOI: 10.1063/1.4993215
   * E. Caldeweyher, S. Ehlert, A. Hansen, H. Neugebauer, S. Spicher,
     C. Bannwarth and S. Grimme, J. Chem. Phys., 2019, 150, 154122.
     DOI: 10.1063/1.5090222
   * E. Caldeweyher, J.-M. Mewes, S. Ehlert and S. Grimme, Phys. Chem. Chem. Phys.
     2020, 22, 8499-8512. DOI: 10.1039/D0CP00502A
   
   for sTDA-xTB:
   * S. Grimme and C. Bannwarth, J. Chem. Phys., 2016, 145, 054103.
     DOI: 10.1063/1.4959605
   
   in the mass-spec context:
   * V. Asgeirsson, C. Bauer and S. Grimme, Chem. Sci., 2017, 8, 4879.
     DOI: 10.1039/c7sc00601b
   * J. Koopman and S. Grimme, ACS Omega 2019, 4, 12, 15120-15133.
     DOI: 10.1021/acsomega.9b02011
   
   for metadynamics refer to:
   * S. Grimme, J. Chem. Theory Comput., 2019, 155, 2847-2862
     DOI: 10.1021/acs.jctc.9b00143
   
   for SPH calculations refer to:
   * S. Spicher and S. Grimme, J. Chem. Theory Comput., 2021, 17, 1701-1714
     DOI: 10.1021/acs.jctc.0c01306
   
   for ONIOM refer to:
   * C. Plett, A. Katbashev, S. Ehlert, S. Grimme, M. Bursch,
     Phys. Chem. Chem. Phys., 2023, 25, 17860-17868. DOI: 10.1039/D3CP02178E
   
   for DIPRO refer to:
   * J. Kohn, N. Gildemeister, S. Grimme, D. Fazzi, A. Hansen,
     J. Chem. Phys., 2023, just accepted.
   
   for PTB refer to:
   * S. Grimme, M. Mueller, A. Hansen, J. Chem. Phys., 2023, 158, 124111.
     DOI: 10.1063/5.0137838
   
   with help from (in alphabetical order)
   P. Atkinson, C. Bannwarth, F. Bohle, G. Brandenburg, E. Caldeweyher
   M. Checinski, S. Dohm, S. Ehlert, S. Ehrlich, I. Gerasimov, C. Hölzer
   A. Katbashev, J. Kohn, J. Koopman, C. Lavigne, S. Lehtola, F. März, M. Müller,
   F. Musil, H. Neugebauer, J. Pisarek, C. Plett, P. Pracht, F. Pultar,
   J. Seibert, P. Shushkov, S. Spicher, M. Stahn, M. Steiner, T. Strunk,
   J. Stückrath, T. Rose, and J. Unsleber
   
 * started run on 2025/05/05 at 16:39:39.750     
   ID    Z sym.   atoms
    1    7 N      1, 5, 13, 19, 28, 36, 44, 52, 60, 66, 73, 79, 82, 83, 91,
                  92, 99, 111, 118
    2    6 C      2, 3, 6, 7, 9-12, 14-18, 20, 21, 23-25, 29, 30, 32, 33, 35,
                  37, 38, 40-43, 45, 46, 48-51, 53, 54, 56-59, 61-65, 67, 68,
                  70-72, 74, 75, 77, 78, 80, 81, 84, 85, 87-90, 93, 94, 96,
                  98, 100, 101, 103-109, 112, 113, 115-117, 119, 120, 122
    3    8 O      4, 8, 22, 26, 27, 31, 39, 47, 55, 69, 76, 86, 95, 97, 102,
                  110, 114, 121
    4   16 S      34
    5    1 H      123-310

           -------------------------------------------------
          |                Calculation Setup                |
           -------------------------------------------------

          program call               : xtb /tmp/tmp5ty08pgo/HIE/input.xyz --alpb ether --chrg 1 --input /tmp/tmp5ty08pgo/HIE/constraints.inp --gfn 2
          hostname                   : fedora
          coordinate file            : /tmp/tmp5ty08pgo/HIE/input.xyz
          omp threads                :                    32


molecular fragmentation (1/2 indicates fragments):
111111111111111111111111111111111111111111122222222222222222222222222222
222222222222222222222222222222222222222222222222222222222222222222222222
222222222211111111111111111111111111111111111111112222222222222222222222
222222222222222222222222222222222222222222222222222222222222222222222222
2222222222222222222222
# atoms in fragment 1/2:    83   227
 fragment masses (1/2) :      616.73     1167.85
CMA distance (Bohr)    :  12.461
constraining FC (au)   :  0.0500

           -------------------------------------------------
          |                 G F N 2 - x T B                 |
           -------------------------------------------------

        Reference                      10.1021/acs.jctc.8b01176
      * Hamiltonian:
        H0-scaling (s, p, d)           1.850000    2.230000    2.230000
        zeta-weighting                 0.500000
      * Dispersion:
        s8                             2.700000
        a1                             0.520000
        a2                             5.000000
        s9                             5.000000
      * Repulsion:
        kExp                           1.500000    1.000000
        rExp                           1.000000
      * Coulomb:
        alpha                          2.000000
        third order                    shell-resolved
        anisotropic                    true
        a3                             3.000000
        a5                             4.000000
        cn-shift                       1.200000
        cn-exp                         4.000000
        max-rad                        5.000000

      * Solvation model:               ALPB
        Solvent                        ether
        Parameter file                 internal GFN2-xTB/ALPB
        Dielectric constant                4.3300E+00
        Reference state                gsolv [1 M gas/solution]
        Free energy shift                  4.9534E-03 Eh       3.1083E+00 kcal/mol
        Temperature                        2.9815E+02 K
        Density                            7.1300E-01 kg/L
        Solvent mass                       7.4120E+01 g/mol
        Interaction kernel             P16
        Born radius scaling (c1)           1.5847E+00
        Born radii integrator          GBOBC
        Born offset                        0.0000E+00 a0       0.0000E+00 AA
        H-bond correction              true
        Ion screening                  false
        Surface tension                    1.0000E-05 Eh       1.5569E+01 dyn/cm
        Grid points                               230 per atom

          ...................................................
          :                      SETUP                      :
          :.................................................:
          :  # basis functions                 682          :
          :  # atomic orbitals                 681          :
          :  # shells                          433          :
          :  # electrons                       732          :
          :  max. iterations                   250          :
          :  Hamiltonian                  GFN2-xTB          :
          :  restarted?                      false          :
          :  GBSA solvation                   true          :
          :  PC potential                    false          :
          :  electronic temp.          300.0000000     K    :
          :  accuracy                    1.0000000          :
          :  -> integral cutoff          0.2500000E+02      :
          :  -> integral neglect         0.1000000E-07      :
          :  -> SCF convergence          0.1000000E-05 Eh   :
          :  -> wf. convergence          0.1000000E-03 e    :
          :  Broyden damping             0.4000000          :
          :  net charge                          1          :
          :  unpaired electrons                  0          :
          ...................................................

 iter      E             dE          RMSdq      gap      omega  full diag
   1   -410.8221726 -0.410822E+03  0.419E+00    0.18       0.0  T
   2   -409.8892758  0.932897E+00  0.311E+00    0.02       1.0  T
   3   -411.4985097 -0.160923E+01  0.240E+00    0.40       1.0  T
   4   -411.9929511 -0.494441E+00  0.213E+00    0.17       1.0  T
   5   -412.0210580 -0.281069E-01  0.154E+00    0.12       1.0  T
   6   -412.2863228 -0.265265E+00  0.139E+00    0.31       1.0  T
   7   -411.7858219  0.500501E+00  0.158E+00    0.07       1.0  T
   8   -412.2543434 -0.468522E+00  0.116E+00    0.17       1.0  T
   9   -412.2753721 -0.210286E-01  0.113E+00    0.11       1.0  T
  10   -412.5485207 -0.273149E+00  0.913E-01    0.11       1.0  T
  11   -411.8468916  0.701629E+00  0.136E+00    0.38       1.0  T
  12   -412.6081037 -0.761212E+00  0.780E-01    0.06       1.0  T
  13   -412.6337368 -0.256331E-01  0.712E-01    0.03       1.0  T
  14   -412.5491720  0.845647E-01  0.747E-01    0.02       1.0  T
  15   -412.6176058 -0.684338E-01  0.675E-01    0.02       1.0  T
  16   -412.3467702  0.270836E+00  0.951E-01    0.02       1.0  T
  17   -412.3410615  0.570869E-02  0.954E-01    0.02       1.0  T
  18   -412.5499819 -0.208920E+00  0.725E-01    0.03       1.0  T
  19   -412.5718030 -0.218211E-01  0.707E-01    0.04       1.0  T
  20   -412.5135260  0.582771E-01  0.754E-01    0.02       1.0  T
  21   -412.7800530 -0.266527E+00  0.771E-01    0.00       1.0  T
  22   -412.7706245  0.942857E-02  0.455E-01    0.02       1.0  T
  23   -412.6898490  0.807754E-01  0.600E-01    0.04       1.0  T
  24   -412.7359783 -0.461293E-01  0.492E-01    0.06       1.0  T
  25   -412.7622111 -0.262328E-01  0.432E-01    0.05       1.0  T
  26   -412.7958815 -0.336704E-01  0.398E-01    0.02       1.0  T
  27   -412.8052031 -0.932163E-02  0.373E-01    0.01       1.0  T
  28   -412.8279175 -0.227144E-01  0.279E-01    0.02       1.0  T
  29   -412.8109304  0.169870E-01  0.331E-01    0.03       1.0  T
  30   -412.8500471 -0.391167E-01  0.183E-01    0.00       1.0  T
  31   -412.8207329  0.293142E-01  0.317E-01    0.01       1.0  T
  32   -412.8474660 -0.267331E-01  0.196E-01    0.01       1.0  T
  33   -412.8399081  0.755791E-02  0.211E-01    0.00       1.0  T
  34   -412.8447873 -0.487922E-02  0.184E-01    0.00       1.0  T
  35   -412.8582761 -0.134887E-01  0.581E-02    0.00       1.0  T
  36   -412.8589952 -0.719179E-03  0.389E-02    0.00       1.0  T
  37   -412.8589727  0.225728E-04  0.402E-02    0.00       1.0  T
  38   -412.8595726 -0.599894E-03  0.135E-02    0.00       1.0  T
  39   -412.8596291 -0.565190E-04  0.105E-02    0.00       1.0  T
  40   -412.8596633 -0.341873E-04  0.796E-03    0.00       1.0  T
  41   -412.8596724 -0.909414E-05  0.529E-03    0.00       1.1  T
  42   -412.8596737 -0.131164E-05  0.537E-03    0.00       1.1  T
  43   -412.8596761 -0.239561E-05  0.483E-03    0.00       1.2  T
  44   -412.8596796 -0.356122E-05  0.370E-03    0.00       1.5  T
  45   -412.8596804 -0.773789E-06  0.337E-03    0.00       1.7  T
  46   -412.8596820 -0.159256E-05  0.263E-03    0.00       2.2  T
  47   -412.8596828 -0.817165E-06  0.190E-03    0.00       3.0  T
  48   -412.8596837 -0.856392E-06  0.895E-04    0.00       6.3  T
  49   -412.8596838 -0.164938E-06  0.373E-04    0.00      15.2  T

   *** convergence criteria satisfied after 49 iterations ***

         #    Occupation            Energy/Eh            Energy/eV
      -------------------------------------------------------------
         1        2.0000           -0.7698916             -20.9498
       ...           ...                  ...                  ...
       360        1.9641           -0.3840281             -10.4499
       361        1.9569           -0.3838510             -10.4451
       362        1.9448           -0.3836100             -10.4386
       363        1.8687           -0.3827495             -10.4151
       364        1.7556           -0.3820997             -10.3975
       365        1.6307           -0.3816374             -10.3849
       366        1.0619           -0.3803442             -10.3497 (HOMO)
       367        1.0065           -0.3802387             -10.3468 (LUMO)
       368        0.8579           -0.3799546             -10.3391
       369                         -0.3255027              -8.8574
       370                         -0.3155840              -8.5875
       371                         -0.3002901              -8.1713
       ...                                ...                  ...
       681                          1.1138252              30.3087
      -------------------------------------------------------------
                  HL-Gap            0.0001055 Eh            0.0029 eV
             Fermi-level           -0.3802264 Eh          -10.3465 eV

 SCC (total)                   0 d,  0 h,  0 min,  2.996 sec
 SCC setup                      ...        0 min,  0.006 sec (  0.194%)
 Dispersion                     ...        0 min,  0.018 sec (  0.590%)
 classical contributions        ...        0 min,  0.001 sec (  0.023%)
 integral evaluation            ...        0 min,  0.025 sec (  0.828%)
 iterations                     ...        0 min,  2.824 sec ( 94.273%)
 molecular gradient             ...        0 min,  0.119 sec (  3.974%)
 printout                       ...        0 min,  0.004 sec (  0.117%)

         :::::::::::::::::::::::::::::::::::::::::::::::::::::
         ::                     SUMMARY                     ::
         :::::::::::::::::::::::::::::::::::::::::::::::::::::
         :: total energy            -404.675826227942 Eh    ::
         :: total w/o Gsasa/hb      -404.572943126886 Eh    ::
         :: gradient norm              1.644117366777 Eh/a0 ::
         :: HOMO-LUMO gap              0.002870479061 eV    ::
         ::.................................................::
         :: SCC energy              -412.822160894650 Eh    ::
         :: -> isotropic ES            0.856326149591 Eh    ::
         :: -> anisotropic ES          0.126995585809 Eh    ::
         :: -> anisotropic XC          0.334831464598 Eh    ::
         :: -> dispersion             -0.371342702913 Eh    ::
         :: -> Gsolv                  -0.229228622973 Eh    ::
         ::    -> Gelec               -0.126345521917 Eh    ::
         ::    -> Gsasa               -0.091974511077 Eh    ::
         ::    -> Ghb                 -0.015862027556 Eh    ::
         ::    -> Gshift               0.004953437577 Eh    ::
         :: repulsion energy           8.146334666708 Eh    ::
         :: add. restraining           0.000000000000 Eh    ::
         :: total charge               1.000000000002 e     ::
         :::::::::::::::::::::::::::::::::::::::::::::::::::::

           -------------------------------------------------
          |                Property Printout                |
           -------------------------------------------------

    * Orbital Energies and Occupations

         #    Occupation            Energy/Eh            Energy/eV
      -------------------------------------------------------------
         1        2.0000           -0.7698916             -20.9498
       ...           ...                  ...                  ...
       354        2.0000           -0.3980567             -10.8317
       355        2.0000           -0.3977700             -10.8239
       356        2.0000           -0.3971564             -10.8072
       357        2.0000           -0.3951723             -10.7532
       358        1.9849           -0.3848642             -10.4727
       359        1.9679           -0.3841368             -10.4529
       360        1.9641           -0.3840281             -10.4499
       361        1.9569           -0.3838510             -10.4451
       362        1.9448           -0.3836100             -10.4386
       363        1.8687           -0.3827495             -10.4151
       364        1.7556           -0.3820997             -10.3975
       365        1.6307           -0.3816374             -10.3849
       366        1.0619           -0.3803442             -10.3497 (HOMO)
       367        1.0065           -0.3802387             -10.3468 (LUMO)
       368        0.8579           -0.3799546             -10.3391
       369                         -0.3255027              -8.8574
       370                         -0.3155840              -8.5875
       371                         -0.3002901              -8.1713
       372                         -0.2905369              -7.9059
       373                         -0.2592359              -7.0542
       374                         -0.2589550              -7.0465
       375                         -0.2553562              -6.9486
       376                         -0.2452937              -6.6748
       377                         -0.2411648              -6.5624
       ...                                ...                  ...
       681                          1.1138252              30.3087
      -------------------------------------------------------------
                  HL-Gap            0.0001055 Eh            0.0029 eV
             Fermi-level           -0.3802264 Eh          -10.3465 eV

     #   Z          covCN         q      C6AA      α(0)
     1   7 N        2.627    -0.354    29.129     8.016
     2   6 C        3.738    -0.023    21.060     6.548
     3   6 C        2.755     0.271    22.415     7.753
     4   8 O        0.860    -0.497    23.722     6.530
     5   7 N        2.693    -0.152    24.286     7.319
     6   6 C        3.808     0.030    20.067     6.377
     7   6 C        2.758     0.278    22.295     7.732
     8   8 O        0.858    -0.481    23.378     6.483
     9   6 C        3.812    -0.078    21.985     6.674
    10   6 C        3.051     0.008    27.803     8.648
    11   6 C        3.033     0.022    27.483     8.599
    12   6 C        3.110    -0.025    28.480     8.743
    13   7 N        1.917    -0.270    27.858     7.826
    14   6 C        3.086     0.067    26.405     8.423
    15   6 C        2.911    -0.030    28.752     8.793
    16   6 C        2.909    -0.033    28.821     8.803
    17   6 C        2.915    -0.043    29.074     8.842
    18   6 C        2.926    -0.035    28.869     8.811
    19   7 N        2.694    -0.161    24.493     7.350
    20   6 C        3.795     0.020    20.239     6.406
    21   6 C        2.755     0.272    22.405     7.751
    22   8 O        0.859    -0.477    23.287     6.470
    23   6 C        3.810    -0.060    21.646     6.623
    24   6 C        3.808    -0.080    22.019     6.680
    25   6 C        2.689     0.377    20.612     7.430
    26   8 O        0.856    -0.551    24.937     6.695
    27   8 O        0.857    -0.532    24.510     6.638
    28   7 N        2.685    -0.159    24.433     7.341
    29   6 C        3.794     0.013    20.366     6.427
    30   6 C        2.757     0.271    22.429     7.755
    31   8 O        0.859    -0.490    23.563     6.508
    32   6 C        3.822    -0.076    21.928     6.664
    33   6 C        3.796    -0.029    21.089     6.539
    34  16 S        1.959    -0.139   146.892    20.399
    35   6 C        3.751    -0.071    21.922     6.677
    36   7 N        2.694    -0.168    24.631     7.371
    37   6 C        3.792     0.026    20.142     6.391
    38   6 C        2.774     0.195    23.848     7.998
    39   8 O        0.856    -0.355    20.802     6.115
    40   6 C        3.812    -0.075    21.931     6.666
    41   6 C        3.849    -0.020    20.895     6.502
    42   6 C        3.762    -0.113    22.705     6.792
    43   6 C        3.758    -0.122    22.892     6.821
    44   7 N        2.628    -0.360    29.272     8.035
    45   6 C        3.786     0.025    20.173     6.397
    46   6 C        2.765     0.195    23.833     7.995
    47   8 O        0.856    -0.368    21.061     6.153
    48   6 C        3.858    -0.021    20.914     6.504
    49   6 C        3.810    -0.059    21.632     6.620
    50   6 C        3.758    -0.113    22.710     6.794
    51   6 C        3.760    -0.107    22.584     6.775
    52   7 N        2.640    -0.330    28.489     7.927
    53   6 C        3.785     0.031    20.070     6.381
    54   6 C        2.764     0.275    22.351     7.742
    55   8 O        0.860    -0.475    23.234     6.463
    56   6 C        3.812    -0.068    21.784     6.643
    57   6 C        3.046     0.002    27.927     8.667
    58   6 C        3.022     0.021    27.523     8.606
    59   6 C        3.101    -0.030    28.619     8.767
    60   7 N        1.909    -0.258    27.548     7.782
    61   6 C        3.075     0.067    26.421     8.428
    62   6 C        2.910    -0.031    28.765     8.794
    63   6 C        2.909    -0.027    28.680     8.781
    64   6 C        2.915    -0.043    29.059     8.840
    65   6 C        2.926    -0.035    28.882     8.813
    66   7 N        2.696    -0.157    24.397     7.336
    67   6 C        3.804     0.013    20.355     6.423
    68   6 C        2.776     0.269    22.465     7.763
    69   8 O        0.859    -0.510    24.007     6.569
    70   6 C        3.860    -0.016    20.815     6.488
    71   6 C        3.760    -0.123    22.912     6.824
    72   6 C        3.765    -0.125    22.948     6.828
    73   7 N        2.687    -0.164    24.545     7.358
    74   6 C        3.807     0.018    20.265     6.408
    75   6 C        2.754     0.271    22.419     7.753
    76   8 O        0.859    -0.491    23.577     6.510
    77   6 C        3.810    -0.078    21.973     6.672
    78   6 C        3.087     0.060    26.556     8.447
    79   7 N        1.982    -0.266    27.727     7.809
    80   6 C        3.048    -0.028    28.646     8.778
    81   6 C        2.102     0.037    29.943     8.841
    82   7 N        2.834    -0.059    22.373     7.025
    83   7 N        2.692    -0.169    24.652     7.374
    84   6 C        3.795     0.019    20.253     6.408
    85   6 C        2.755     0.267    22.489     7.766
    86   8 O        0.858    -0.484    23.433     6.490
    87   6 C        3.810    -0.069    21.821     6.649
    88   6 C        3.801    -0.086    22.137     6.699
    89   6 C        3.795    -0.092    22.262     6.719
    90   6 C        3.722    -0.046    21.509     6.623
    91   7 N        3.479    -0.169    24.649     7.374
    92   7 N        2.689    -0.155    24.345     7.328
    93   6 C        3.795     0.014    20.346     6.423
    94   6 C        2.769     0.202    23.711     7.975
    95   8 O        0.856    -0.345    20.621     6.088
    96   6 C        3.735     0.111    18.844     6.195
    97   8 O        1.654    -0.474    22.334     6.380
    98   6 C        3.761    -0.143    23.311     6.883
    99   7 N        2.637    -0.337    28.668     7.952
   100   6 C        3.793     0.028    20.111     6.386
   101   6 C        2.768     0.270    22.439     7.758
   102   8 O        0.858    -0.497    23.717     6.529
   103   6 C        3.814    -0.079    21.994     6.675
   104   6 C        2.970    -0.010    28.263     8.720
   105   6 C        2.935    -0.050    29.247     8.869
   106   6 C        2.937    -0.046    29.138     8.853
   107   6 C        2.925    -0.071    29.774     8.948
   108   6 C        2.924    -0.059    29.479     8.904
   109   6 C        2.865     0.155    24.633     8.135
   110   8 O        1.662    -0.411    21.068     6.196
   111   7 N        2.699    -0.162    24.502     7.352
   112   6 C        3.806     0.016    20.308     6.415
   113   6 C        2.768     0.270    22.444     7.759
   114   8 O        0.859    -0.499    23.772     6.537
   115   6 C        3.855    -0.017    20.837     6.492
   116   6 C        3.762    -0.120    22.836     6.812
   117   6 C        3.756    -0.121    22.880     6.820
   118   7 N        2.691    -0.158    24.428     7.341
   119   6 C        3.797     0.034    20.011     6.370
   120   6 C        2.884     0.121    25.335     8.252
   121   8 O        0.856    -0.378    21.244     6.180
   122   6 C        3.763    -0.116    22.759     6.800
   123   1 H        0.980    -0.001     3.073     2.739
   124   1 H        0.980     0.010     2.889     2.656
   125   1 H        0.980    -0.014     3.296     2.837
   126   1 H        0.980     0.015     2.795     2.613
   127   1 H        0.980     0.025     2.652     2.545
   128   1 H        0.980    -0.019     3.408     2.885
   129   1 H        0.980     0.019     2.735     2.584
   130   1 H        0.980    -0.011     3.250     2.817
   131   1 H        0.980    -0.016     3.346     2.858
   132   1 H        0.980     0.005     2.969     2.692
   133   1 H        0.980    -0.001     3.074     2.740
   134   1 H        0.980    -0.002     3.092     2.748
   135   1 H        0.980     0.014     2.816     2.622
   136   1 H        0.980     0.017     2.773     2.602
   137   1 H        0.980    -0.046     3.974     3.115
   138   1 H        0.980    -0.026     3.543     2.941
   139   1 H        0.980     0.003     2.997     2.705
   140   1 H        0.980    -0.021     3.436     2.897
   141   1 H        0.980     0.007     2.937     2.678
   142   1 H        0.980    -0.001     3.069     2.738
   143   1 H        0.980    -0.004     3.125     2.763
   144   1 H        0.980    -0.004     3.121     2.761
   145   1 H        0.980    -0.001     3.071     2.738
   146   1 H        0.980     0.007     2.937     2.678
   147   1 H        0.980     0.006     2.945     2.682
   148   1 H        0.980    -0.000     3.051     2.730
   149   1 H        0.980    -0.004     3.123     2.762
   150   1 H        0.980     0.016     2.783     2.607
   151   1 H        0.980    -0.008     3.199     2.795
   152   1 H        0.980    -0.015     3.312     2.844
   153   1 H        0.980    -0.010     3.220     2.804
   154   1 H        0.980     0.031     2.569     2.504
   155   1 H        0.860     0.179     1.222     1.732
   156   1 H        0.860     0.160     1.334     1.809
   157   1 H        0.927     0.048     2.350     2.397
   158   1 H        0.927     0.079     1.991     2.207
   159   1 H        0.861     0.205     1.083     1.630
   160   1 H        0.927     0.080     1.976     2.198
   161   1 H        0.927     0.088     1.903     2.157
   162   1 H        0.927     0.073     2.054     2.241
   163   1 H        0.929     0.043     2.408     2.427
   164   1 H        0.929     0.052     2.297     2.370
   165   1 H        0.929     0.066     2.134     2.284
   166   1 H        0.929     0.053     2.280     2.361
   167   1 H        0.929     0.060     2.200     2.320
   168   1 H        0.861     0.227     0.976     1.547
   169   1 H        0.927     0.080     1.977     2.199
   170   1 H        0.927     0.054     2.267     2.354
   171   1 H        0.927     0.068     2.104     2.268
   172   1 H        0.927     0.074     2.047     2.237
   173   1 H        0.927     0.065     2.136     2.285
   174   1 H        0.861     0.205     1.083     1.630
   175   1 H        0.927     0.099     1.798     2.097
   176   1 H        0.927     0.069     2.096     2.264
   177   1 H        0.927     0.069     2.095     2.263
   178   1 H        0.927     0.079     1.991     2.207
   179   1 H        0.927     0.071     2.071     2.250
   180   1 H        0.927     0.075     2.032     2.229
   181   1 H        0.927     0.067     2.114     2.274
   182   1 H        0.927     0.064     2.151     2.294
   183   1 H        0.861     0.234     0.949     1.526
   184   1 H        0.927     0.099     1.796     2.096
   185   1 H        0.929     0.080     1.983     2.202
   186   1 H        0.927     0.065     2.145     2.290
   187   1 H        0.927     0.064     2.150     2.293
   188   1 H        0.927     0.048     2.343     2.394
   189   1 H        0.927     0.045     2.381     2.413
   190   1 H        0.927     0.038     2.476     2.461
   191   1 H        0.927     0.035     2.511     2.478
   192   1 H        0.926     0.044     2.395     2.420
   193   1 H        0.927     0.046     2.366     2.406
   194   1 H        0.927     0.042     2.427     2.436
   195   1 H        0.860     0.170     1.272     1.767
   196   1 H        0.860     0.159     1.341     1.814
   197   1 H        0.927     0.080     1.980     2.201
   198   1 H        0.929     0.066     2.127     2.281
   199   1 H        0.927     0.044     2.395     2.420
   200   1 H        0.927     0.029     2.597     2.520
   201   1 H        0.927     0.040     2.454     2.450
   202   1 H        0.927     0.042     2.428     2.437
   203   1 H        0.927     0.047     2.360     2.402
   204   1 H        0.927     0.050     2.325     2.384
   205   1 H        0.927     0.042     2.429     2.437
   206   1 H        0.927     0.037     2.488     2.466
   207   1 H        0.927     0.039     2.465     2.455
   208   1 H        0.860     0.182     1.202     1.717
   209   1 H        0.860     0.210     1.057     1.610
   210   1 H        0.927     0.053     2.279     2.361
   211   1 H        0.927     0.067     2.119     2.276
   212   1 H        0.926     0.064     2.150     2.293
   213   1 H        0.929     0.039     2.467     2.456
   214   1 H        0.929     0.051     2.311     2.377
   215   1 H        0.929     0.074     2.044     2.235
   216   1 H        0.929     0.056     2.249     2.345
   217   1 H        0.929     0.058     2.222     2.331
   218   1 H        0.861     0.204     1.084     1.631
   219   1 H        0.927     0.092     1.861     2.133
   220   1 H        0.927     0.045     2.381     2.413
   221   1 H        0.927     0.048     2.339     2.391
   222   1 H        0.927     0.041     2.440     2.443
   223   1 H        0.927     0.053     2.277     2.360
   224   1 H        0.927     0.048     2.339     2.391
   225   1 H        0.926     0.053     2.281     2.362
   226   1 H        0.927     0.050     2.316     2.380
   227   1 H        0.861     0.233     0.950     1.527
   228   1 H        0.927     0.094     1.836     2.119
   229   1 H        0.927     0.089     1.891     2.150
   230   1 H        0.926     0.096     1.823     2.112
   231   1 H        0.929     0.061     2.186     2.312
   232   1 H        0.861     0.227     0.980     1.550
   233   1 H        0.926     0.072     2.065     2.247
   234   1 H        0.926     0.064     2.152     2.294
   235   1 H        0.927     0.066     2.127     2.281
   236   1 H        0.927     0.055     2.259     2.351
   237   1 H        0.927     0.064     2.154     2.295
   238   1 H        0.927     0.093     1.848     2.126
   239   1 H        0.926     0.066     2.129     2.281
   240   1 H        0.927     0.116     1.644     2.005
   241   1 H        0.927     0.118     1.629     1.996
   242   1 H        0.861     0.214     1.040     1.597
   243   1 H        0.927     0.099     1.793     2.094
   244   1 H        0.929     0.085     1.928     2.171
   245   1 H        0.926     0.072     2.069     2.249
   246   1 H        0.804     0.328     0.643     1.260
   247   1 H        0.927     0.062     2.176     2.307
   248   1 H        0.926     0.065     2.145     2.290
   249   1 H        0.927     0.073     2.052     2.240
   250   1 H        0.860     0.175     1.245     1.748
   251   1 H        0.860     0.181     1.209     1.723
   252   1 H        0.927     0.062     2.179     2.308
   253   1 H        0.927     0.054     2.269     2.355
   254   1 H        0.927     0.061     2.182     2.310
   255   1 H        0.929     0.052     2.292     2.367
   256   1 H        0.929     0.049     2.330     2.387
   257   1 H        0.929     0.056     2.246     2.344
   258   1 H        0.929     0.060     2.202     2.321
   259   1 H        0.810     0.339     0.614     1.230
   260   1 H        0.861     0.223     0.995     1.563
   261   1 H        0.927     0.077     2.014     2.219
   262   1 H        0.927     0.052     2.293     2.368
   263   1 H        0.927     0.046     2.364     2.404
   264   1 H        0.927     0.038     2.470     2.457
   265   1 H        0.927     0.054     2.275     2.358
   266   1 H        0.927     0.049     2.332     2.388
   267   1 H        0.927     0.050     2.317     2.380
   268   1 H        0.927     0.048     2.349     2.397
   269   1 H        0.861     0.214     1.038     1.596
   270   1 H        0.927     0.107     1.719     2.050
   271   1 H        0.945     0.132     1.517     1.925
   272   1 H        0.926     0.060     2.201     2.320
   273   1 H        0.927     0.081     1.965     2.192
   274   1 H        0.927     0.060     2.203     2.321
   275   1 H        0.980     0.001     3.027     2.719
   276   1 H        0.980    -0.002     3.080     2.742
   277   1 H        0.980     0.013     2.837     2.632
   278   1 H        0.980    -0.015     3.316     2.846
   279   1 H        0.980    -0.024     3.498     2.923
   280   1 H        0.980     0.019     2.733     2.583
   281   1 H        0.980    -0.013     3.277     2.829
   282   1 H        0.980     0.005     2.965     2.691
   283   1 H        0.980     0.018     2.757     2.595
   284   1 H        0.980    -0.005     3.130     2.765
   285   1 H        0.980     0.002     3.021     2.716
   286   1 H        0.980     0.003     2.998     2.705
   287   1 H        0.980    -0.014     3.302     2.839
   288   1 H        0.980    -0.015     3.318     2.846
   289   1 H        1.112     0.115     1.644     2.002
   290   1 H        0.980     0.023     2.677     2.557
   291   1 H        0.980    -0.007     3.169     2.782
   292   1 H        0.980     0.023     2.684     2.560
   293   1 H        0.980    -0.004     3.122     2.761
   294   1 H        0.980     0.000     3.042     2.726
   295   1 H        0.980     0.005     2.967     2.692
   296   1 H        0.980     0.004     2.973     2.694
   297   1 H        0.980     0.003     2.993     2.703
   298   1 H        0.980    -0.007     3.176     2.785
   299   1 H        0.980    -0.006     3.158     2.777
   300   1 H        0.980     0.003     2.993     2.704
   301   1 H        0.980     0.004     2.980     2.698
   302   1 H        0.980    -0.014     3.300     2.839
   303   1 H        0.980     0.003     3.003     2.708
   304   1 H        0.980     0.008     2.918     2.669
   305   1 H        0.980    -0.003     3.102     2.752
   306   1 H        0.980    -0.011     3.248     2.816
   307   1 H        0.860     0.295     0.728     1.337
   308   1 H        0.860     0.286     0.758     1.364
   309   1 H        0.860     0.300     0.714     1.323
   310   1 H        0.858     0.187     1.174     1.697

 Mol. C6AA /au·bohr⁶  :     780760.073654
 Mol. C8AA /au·bohr⁸  :   16756561.868113
 Mol. α(0) /au        :       1346.523894


Wiberg/Mayer (AO) data.
largest (>0.10) Wiberg bond orders for each atom

 ---------------------------------------------------------------------------
     #   Z sym  total        # sym  WBO       # sym  WBO       # sym  WBO
 ---------------------------------------------------------------------------
     1   7 N    2.970 --     2 C    1.019   156 H    0.959   155 H    0.953
     2   6 C    3.977 --     1 N    1.019   158 H    0.973   157 H    0.957
                             3 C    0.948
     3   6 C    3.945 --     4 O    1.622     5 N    1.320     2 C    0.948
     4   8 O    1.930 --     3 C    1.622     5 N    0.194
     5   7 N    3.484 --     3 C    1.320     6 C    0.979   159 H    0.926
                             4 O    0.194
     6   6 C    3.947 --     5 N    0.979     9 C    0.950   160 H    0.949
                             7 C    0.941
     7   6 C    3.952 --     8 O    1.640    19 N    1.300     6 C    0.941
     8   8 O    1.949 --     7 C    1.640    19 N    0.199
     9   6 C    3.978 --    10 C    1.025   162 H    0.971     6 C    0.950
                           161 H    0.945
    10   6 C    3.682 --    11 C    1.392    12 C    1.164     9 C    1.025
    11   6 C    3.954 --    13 N    1.417    10 C    1.392   163 H    0.970
    12   6 C    3.964 --    15 C    1.380    14 C    1.225    10 C    1.164
    13   7 N    2.723 --    11 C    1.417    14 C    1.196
    14   6 C    3.960 --    16 C    1.372    12 C    1.225    13 N    1.196
    15   6 C    3.885 --    17 C    1.402    12 C    1.380   164 H    0.967
    16   6 C    3.886 --    18 C    1.404    14 C    1.372   165 H    0.967
    17   6 C    3.940 --    18 C    1.423    15 C    1.402   166 H    0.972
    18   6 C    3.927 --    17 C    1.423    16 C    1.404   167 H    0.962
    19   7 N    3.472 --     7 C    1.300    20 C    0.978   168 H    0.910
                             8 O    0.199
    20   6 C    3.960 --    19 N    0.978    23 C    0.969   169 H    0.955
                            21 C    0.943
    21   6 C    3.947 --    22 O    1.616    28 N    1.310    20 C    0.943
    22   8 O    1.959 --    21 C    1.616    28 N    0.194
    23   6 C    3.982 --    24 C    0.998   170 H    0.975   171 H    0.973
                            20 C    0.969
    24   6 C    3.856 --    23 C    0.998   172 H    0.967   173 H    0.952
                            25 C    0.884
    25   6 C    3.907 --    27 O    1.507    26 O    1.493    24 C    0.884
    26   8 O    1.755 --    25 C    1.493    27 O    0.221
    27   8 O    1.770 --    25 C    1.507    26 O    0.221
    28   7 N    3.477 --    21 C    1.310    29 C    0.975   174 H    0.929
                            22 O    0.194
    29   6 C    3.957 --    28 N    0.975    32 C    0.969   175 H    0.946
                            30 C    0.940
    30   6 C    3.954 --    31 O    1.633    36 N    1.314    29 C    0.940
    31   8 O    1.949 --    30 C    1.633    36 N    0.203
    32   6 C    3.983 --    33 C    0.998    29 C    0.969   176 H    0.968
                           177 H    0.960
    33   6 C    3.971 --    32 C    0.998    34 S    0.995   179 H    0.970
                           178 H    0.956
    34  16 S    2.083 --    35 C    1.014    33 C    0.995
    35   6 C    3.970 --    34 S    1.014   181 H    0.980   180 H    0.977
                           182 H    0.966
    36   7 N    3.477 --    30 C    1.314    37 C    0.974   183 H    0.896
                            31 O    0.203
    37   6 C    3.967 --    38 C    1.003    36 N    0.974   184 H    0.944
                            40 C    0.942
    38   6 C    3.900 --    39 O    1.869    37 C    1.003   185 H    0.949
    39   8 O    2.064 --    38 C    1.869
    40   6 C    3.983 --    41 C    0.985   187 H    0.972   186 H    0.971
                            37 C    0.942
    41   6 C    3.992 --    42 C    1.012    43 C    1.004    40 C    0.985
                           188 H    0.961
    42   6 C    3.996 --    41 C    1.012   191 H    0.984   190 H    0.983
                           189 H    0.982
    43   6 C    3.994 --    41 C    1.004   194 H    0.987   193 H    0.985
                           192 H    0.983
    44   7 N    2.991 --    45 C    1.017   196 H    0.958   195 H    0.954
    45   6 C    3.979 --    44 N    1.017    46 C    0.991   197 H    0.952
                            48 C    0.932
    46   6 C    3.898 --    47 O    1.889    45 C    0.991   198 H    0.950
    47   8 O    2.035 --    46 C    1.889
    48   6 C    3.985 --    50 C    1.002    49 C    0.997   199 H    0.964
                            45 C    0.932
    49   6 C    3.998 --    51 C    1.017    48 C    0.997   200 H    0.977
                           201 H    0.976
    50   6 C    3.995 --    48 C    1.002   203 H    0.984   202 H    0.980
                           204 H    0.975
    51   6 C    3.996 --    49 C    1.017   206 H    0.986   205 H    0.985
                           207 H    0.980
    52   7 N    3.031 --    53 C    1.037   208 H    0.948   209 H    0.908
    53   6 C    3.945 --    52 N    1.037   210 H    0.966    54 C    0.933
                            56 C    0.902
    54   6 C    3.946 --    55 O    1.625    66 N    1.316    53 C    0.933
    55   8 O    1.970 --    54 C    1.625    66 N    0.197
    56   6 C    3.968 --    57 C    1.060   212 H    0.964   211 H    0.958
                            53 C    0.902
    57   6 C    3.728 --    58 C    1.368    59 C    1.156    56 C    1.060
    58   6 C    3.955 --    60 N    1.437    57 C    1.368   213 H    0.970
    59   6 C    3.965 --    62 C    1.377    61 C    1.240    57 C    1.156
    60   7 N    2.752 --    58 C    1.437    61 C    1.192
    61   6 C    3.961 --    63 C    1.361    59 C    1.240    60 N    1.192
    62   6 C    3.897 --    64 C    1.399    59 C    1.377   214 H    0.970
    63   6 C    3.895 --    65 C    1.413    61 C    1.361   215 H    0.965
    64   6 C    3.942 --    65 C    1.429    62 C    1.399   216 H    0.973
    65   6 C    3.934 --    64 C    1.429    63 C    1.413   217 H    0.972
    66   7 N    3.489 --    54 C    1.316    67 C    0.967   218 H    0.928
                            55 O    0.197
    67   6 C    3.955 --    66 N    0.967    70 C    0.955   219 H    0.951
                            68 C    0.948
    68   6 C    3.950 --    69 O    1.593    73 N    1.330    67 C    0.948
    69   8 O    1.926 --    68 C    1.593    73 N    0.197
    70   6 C    3.990 --    72 C    1.016    71 C    1.003   220 H    0.967
                            67 C    0.955
    71   6 C    3.992 --    70 C    1.003   222 H    0.983   223 H    0.982
                           221 H    0.977
    72   6 C    3.993 --    70 C    1.016   225 H    0.981   226 H    0.981
                           224 H    0.980
    73   7 N    3.488 --    68 C    1.330    74 C    0.982   227 H    0.893
                            69 O    0.197
    74   6 C    3.959 --    73 N    0.982    75 C    0.956    77 C    0.955
                           228 H    0.935
    75   6 C    3.954 --    76 O    1.620    83 N    1.308    74 C    0.956
    76   8 O    1.947 --    75 C    1.620    83 N    0.196
    77   6 C    3.981 --    78 C    1.019    74 C    0.955   230 H    0.951
                           229 H    0.949
    78   6 C    3.901 --    80 C    1.577    79 N    1.178    77 C    1.019
    79   7 N    3.052 --    81 C    1.600    78 C    1.178
    80   6 C    3.898 --    78 C    1.577    82 N    1.165   231 H    0.964
                            81 C    0.111
    81   6 C    3.122 --    79 N    1.600    82 N    1.321    80 C    0.111
    82   7 N    3.565 --    81 C    1.321    80 C    1.165   310 H    0.931
    83   7 N    3.470 --    75 C    1.308    84 C    0.978   232 H    0.904
                            76 O    0.196
    84   6 C    3.966 --    83 N    0.978    87 C    0.961   233 H    0.953
                            85 C    0.946
    85   6 C    3.949 --    86 O    1.629    92 N    1.306    84 C    0.946
    86   8 O    1.958 --    85 C    1.629    92 N    0.194
    87   6 C    3.988 --    88 C    1.011   234 H    0.973   235 H    0.969
                            84 C    0.961
    88   6 C    3.993 --    87 C    1.011    89 C    1.000   237 H    0.975
                           236 H    0.974
    89   6 C    3.983 --    90 C    1.008    88 C    1.000   239 H    0.969
                           238 H    0.966
    90   6 C    3.901 --    89 C    1.008   241 H    0.970   240 H    0.969
                            91 N    0.935
    91   7 N    3.652 --    90 C    0.935   308 H    0.907   307 H    0.902
                           309 H    0.872
    92   7 N    3.476 --    85 C    1.306    93 C    0.978   242 H    0.915
                            86 O    0.194
    93   6 C    3.968 --    94 C    0.979    92 N    0.978   243 H    0.938
                            96 C    0.935
    94   6 C    3.897 --    95 O    1.888    93 C    0.979   244 H    0.947
    95   8 O    2.073 --    94 C    1.888
    96   6 C    3.954 --    98 C    1.001    97 O    0.992   245 H    0.959
                            93 C    0.935
    97   8 O    1.945 --    96 C    0.992   246 H    0.868
    98   6 C    3.987 --    96 C    1.001   247 H    0.980   249 H    0.977
                           248 H    0.974
    99   7 N    2.989 --   100 C    1.025   250 H    0.953   251 H    0.949
   100   6 C    3.965 --    99 N    1.025   252 H    0.956   101 C    0.953
                           103 C    0.934
   101   6 C    3.946 --   102 O    1.614   111 N    1.315   100 C    0.953
   102   8 O    1.923 --   101 C    1.614   111 N    0.197
   103   6 C    3.972 --   104 C    1.014   253 H    0.976   254 H    0.960
                           100 C    0.934
   104   6 C    3.938 --   106 C    1.387   105 C    1.377   103 C    1.014
   105   6 C    3.980 --   107 C    1.489   104 C    1.377   255 H    0.957
   106   6 C    3.979 --   108 C    1.469   104 C    1.387   256 H    0.971
   107   6 C    3.966 --   105 C    1.489   109 C    1.322   257 H    0.967
   108   6 C    3.966 --   106 C    1.469   109 C    1.351   258 H    0.967
   109   6 C    3.908 --   108 C    1.351   107 C    1.322   110 O    1.115
   110   8 O    2.099 --   109 C    1.115   259 H    0.793
   111   7 N    3.484 --   101 C    1.315   112 C    0.981   260 H    0.907
                           102 O    0.197
   112   6 C    3.964 --   111 N    0.981   261 H    0.957   113 C    0.950
                           115 C    0.947
   113   6 C    3.952 --   114 O    1.595   118 N    1.328   112 C    0.950
   114   8 O    1.934 --   113 C    1.595   118 N    0.195
   115   6 C    3.989 --   116 C    1.010   117 C    1.003   262 H    0.970
                           112 C    0.947
   116   6 C    3.994 --   115 C    1.010   263 H    0.985   264 H    0.978
                           265 H    0.975
   117   6 C    3.992 --   115 C    1.003   266 H    0.987   268 H    0.986
                           267 H    0.985
   118   7 N    3.490 --   113 C    1.328   119 C    0.967   269 H    0.922
                           114 O    0.195
   119   6 C    3.960 --   120 C    0.987   118 N    0.967   122 C    0.965
                           270 H    0.932
   120   6 C    3.850 --   121 O    1.860   119 C    0.987   271 H    0.828
   121   8 O    2.030 --   120 C    1.860
   122   6 C    3.983 --   272 H    0.985   274 H    0.978   273 H    0.972
                           119 C    0.965
   123   1 H    1.000 --   275 H    0.995
   124   1 H    1.000 --   276 H    0.985
   125   1 H    1.000 --   277 H    0.969
   126   1 H    1.000 --   278 H    0.962
   127   1 H    0.999 --   279 H    0.939
   128   1 H    1.000 --   280 H    0.942
   129   1 H    1.000 --   281 H    0.955
   130   1 H    1.000 --   282 H    0.982
   131   1 H    1.000 --   283 H    0.961
   132   1 H    1.000 --   284 H    0.989
   133   1 H    1.000 --   285 H    0.997
   134   1 H    1.000 --   286 H    0.973
   135   1 H    1.000 --   287 H    0.986
   136   1 H    1.000 --   288 H    0.975
   137   1 H    0.990 --   289 H    0.856
   138   1 H    0.999 --   290 H    0.979
   139   1 H    1.000 --   291 H    0.950
   140   1 H    1.000 --   292 H    0.938
   141   1 H    1.000 --   293 H    0.988
   142   1 H    1.000 --   294 H    0.984
   143   1 H    0.999 --   295 H    0.974
   144   1 H    1.000 --   296 H    0.994
   145   1 H    1.000 --   297 H    0.981
   146   1 H    1.000 --   298 H    0.982
   147   1 H    1.000 --   299 H    0.991
   148   1 H    1.000 --   300 H    0.978
   149   1 H    1.000 --   301 H    0.969
   150   1 H    1.000 --   302 H    0.963
   151   1 H    1.000 --   303 H    0.972
   152   1 H    1.000 --   304 H    0.930
   153   1 H    1.000 --   305 H    0.953
   154   1 H    0.999 --   306 H    0.886
   155   1 H    0.966 --     1 N    0.953
   156   1 H    0.974 --     1 N    0.959
   157   1 H    0.990 --     2 C    0.957
   158   1 H    0.993 --     2 C    0.973
   159   1 H    0.957 --     5 N    0.926
   160   1 H    0.993 --     6 C    0.949
   161   1 H    0.976 --     9 C    0.945
   162   1 H    0.994 --     9 C    0.971
   163   1 H    0.997 --    11 C    0.970
   164   1 H    0.996 --    15 C    0.967
   165   1 H    0.994 --    16 C    0.967
   166   1 H    0.997 --    17 C    0.972
   167   1 H    0.996 --    18 C    0.962
   168   1 H    0.948 --    19 N    0.910
   169   1 H    0.993 --    20 C    0.955
   170   1 H    0.996 --    23 C    0.975
   171   1 H    0.994 --    23 C    0.973
   172   1 H    0.992 --    24 C    0.967
   173   1 H    0.992 --    24 C    0.952
   174   1 H    0.958 --    28 N    0.929
   175   1 H    0.990 --    29 C    0.946
   176   1 H    0.995 --    32 C    0.968
   177   1 H    0.995 --    32 C    0.960
   178   1 H    0.994 --    33 C    0.956
   179   1 H    0.989 --    33 C    0.970
   180   1 H    0.994 --    35 C    0.977
   181   1 H    0.990 --    35 C    0.980
   182   1 H    0.991 --    35 C    0.966
   183   1 H    0.945 --    36 N    0.896
   184   1 H    0.990 --    37 C    0.944
   185   1 H    0.993 --    38 C    0.949
   186   1 H    0.995 --    40 C    0.971
   187   1 H    0.996 --    40 C    0.972
   188   1 H    0.998 --    41 C    0.961
   189   1 H    0.998 --    42 C    0.982
   190   1 H    0.999 --    42 C    0.983
   191   1 H    0.998 --    42 C    0.984
   192   1 H    0.998 --    43 C    0.983
   193   1 H    0.997 --    43 C    0.985
   194   1 H    0.998 --    43 C    0.987
   195   1 H    0.970 --    44 N    0.954
   196   1 H    0.974 --    44 N    0.958
   197   1 H    0.993 --    45 C    0.952
   198   1 H    0.995 --    46 C    0.950
   199   1 H    0.998 --    48 C    0.964
   200   1 H    0.999 --    49 C    0.977
   201   1 H    0.998 --    49 C    0.976
   202   1 H    0.998 --    50 C    0.980
   203   1 H    0.998 --    50 C    0.984
   204   1 H    0.997 --    50 C    0.975
   205   1 H    0.998 --    51 C    0.985
   206   1 H    0.998 --    51 C    0.986
   207   1 H    0.998 --    51 C    0.980
   208   1 H    0.964 --    52 N    0.948
   209   1 H    0.954 --    52 N    0.908
   210   1 H    0.995 --    53 C    0.966
   211   1 H    0.988 --    56 C    0.958
   212   1 H    0.991 --    56 C    0.964
   213   1 H    0.998 --    58 C    0.970
   214   1 H    0.997 --    62 C    0.970
   215   1 H    0.994 --    63 C    0.965
   216   1 H    0.997 --    64 C    0.973
   217   1 H    0.996 --    65 C    0.972
   218   1 H    0.958 --    66 N    0.928
   219   1 H    0.991 --    67 C    0.951
   220   1 H    0.998 --    70 C    0.967
   221   1 H    0.998 --    71 C    0.977
   222   1 H    0.998 --    71 C    0.983
   223   1 H    0.996 --    71 C    0.982
   224   1 H    0.998 --    72 C    0.980
   225   1 H    0.997 --    72 C    0.981
   226   1 H    0.997 --    72 C    0.981
   227   1 H    0.945 --    73 N    0.893
   228   1 H    0.989 --    74 C    0.935
   229   1 H    0.992 --    77 C    0.949
   230   1 H    0.988 --    77 C    0.951
   231   1 H    0.996 --    80 C    0.964
   232   1 H    0.948 --    83 N    0.904
   233   1 H    0.995 --    84 C    0.953
   234   1 H    0.996 --    87 C    0.973
   235   1 H    0.995 --    87 C    0.969
   236   1 H    0.997 --    88 C    0.974
   237   1 H    0.996 --    88 C    0.975
   238   1 H    0.991 --    89 C    0.966
   239   1 H    0.996 --    89 C    0.969
   240   1 H    0.986 --    90 C    0.969
   241   1 H    0.986 --    90 C    0.970
   242   1 H    0.954 --    92 N    0.915
   243   1 H    0.990 --    93 C    0.938
   244   1 H    0.992 --    94 C    0.947
   245   1 H    0.994 --    96 C    0.959
   246   1 H    0.893 --    97 O    0.868
   247   1 H    0.996 --    98 C    0.980
   248   1 H    0.996 --    98 C    0.974
   249   1 H    0.995 --    98 C    0.977
   250   1 H    0.966 --    99 N    0.953
   251   1 H    0.966 --    99 N    0.949
   252   1 H    0.996 --   100 C    0.956
   253   1 H    0.997 --   103 C    0.976
   254   1 H    0.990 --   103 C    0.960
   255   1 H    0.997 --   105 C    0.957
   256   1 H    0.997 --   106 C    0.971
   257   1 H    0.996 --   107 C    0.967
   258   1 H    0.996 --   108 C    0.967
   259   1 H    0.885 --   110 O    0.793
   260   1 H    0.950 --   111 N    0.907
   261   1 H    0.994 --   112 C    0.957
   262   1 H    0.997 --   115 C    0.970
   263   1 H    0.998 --   116 C    0.985
   264   1 H    0.999 --   116 C    0.978
   265   1 H    0.996 --   116 C    0.975
   266   1 H    0.998 --   117 C    0.987
   267   1 H    0.997 --   117 C    0.985
   268   1 H    0.998 --   117 C    0.986
   269   1 H    0.954 --   118 N    0.922
   270   1 H    0.988 --   119 C    0.932
   271   1 H    0.979 --   120 C    0.828
   272   1 H    0.996 --   122 C    0.985
   273   1 H    0.993 --   122 C    0.972
   274   1 H    0.996 --   122 C    0.978
   275   1 H    1.000 --   123 H    0.995
   276   1 H    1.000 --   124 H    0.985
   277   1 H    1.000 --   125 H    0.969
   278   1 H    1.000 --   126 H    0.962
   279   1 H    0.999 --   127 H    0.939
   280   1 H    1.000 --   128 H    0.942
   281   1 H    1.000 --   129 H    0.955
   282   1 H    1.000 --   130 H    0.982
   283   1 H    1.000 --   131 H    0.961
   284   1 H    1.000 --   132 H    0.989
   285   1 H    1.000 --   133 H    0.997
   286   1 H    1.000 --   134 H    0.973
   287   1 H    1.000 --   135 H    0.986
   288   1 H    1.000 --   136 H    0.975
   289   1 H    0.982 --   137 H    0.856
   290   1 H    0.999 --   138 H    0.979
   291   1 H    1.000 --   139 H    0.950
   292   1 H    0.999 --   140 H    0.938
   293   1 H    1.000 --   141 H    0.988
   294   1 H    1.000 --   142 H    0.984
   295   1 H    0.999 --   143 H    0.974
   296   1 H    1.000 --   144 H    0.994
   297   1 H    1.000 --   145 H    0.981
   298   1 H    1.000 --   146 H    0.982
   299   1 H    1.000 --   147 H    0.991
   300   1 H    1.000 --   148 H    0.978
   301   1 H    1.000 --   149 H    0.969
   302   1 H    1.000 --   150 H    0.963
   303   1 H    1.000 --   151 H    0.972
   304   1 H    1.000 --   152 H    0.930
   305   1 H    1.000 --   153 H    0.953
   306   1 H    1.000 --   154 H    0.886
   307   1 H    0.913 --    91 N    0.902
   308   1 H    0.918 --    91 N    0.907
   309   1 H    0.910 --    91 N    0.872
   310   1 H    0.964 --    82 N    0.931
 ---------------------------------------------------------------------------

Topologies differ in total number of bonds
Writing topology from bond orders to xtbtopo.mol

molecular dipole:
                 x           y           z       tot (Debye)
 q only:      134.893      -0.814      37.866
   full:      134.149      -0.670      36.587     353.431
molecular quadrupole (traceless):
                xx          xy          yy          xz          yz          zz
 q only:    17499.235    -121.864  -10007.404    7761.100      27.936   -7491.831
  q+dip:    17374.189    -114.909   -9887.562    7465.023      45.337   -7486.627
   full:    17363.831    -108.900   -9885.946    7463.951      43.460   -7477.884


           -------------------------------------------------
          | TOTAL ENERGY             -404.675826227942 Eh   |
          | GRADIENT NORM               1.644117366777 Eh/α |
          | HOMO-LUMO GAP               0.002870479061 eV   |
           -------------------------------------------------
########################################################################
[WARNING] Runtime exception occurred
-3- restart_readRestart: Dimension missmatch in restart file.
-2- restart_readRestart: Multiplicity missmatch in restart file.
-1- restart_readRestart: Number of electron missmatch in restart file.
########################################################################

------------------------------------------------------------------------
 * finished run on 2025/05/05 at 16:39:42.788     
------------------------------------------------------------------------
 total:
 * wall-time:     0 d,  0 h,  0 min,  3.038 sec
 *  cpu-time:     0 d,  0 h,  1 min, 34.083 sec
 * ratio c/w:    30.972 speedup
 SCF:
 * wall-time:     0 d,  0 h,  0 min,  2.999 sec
 *  cpu-time:     0 d,  0 h,  1 min, 33.017 sec
 * ratio c/w:    31.015 speedup

