      -----------------------------------------------------------      
     |                   =====================                   |     
     |                           x T B                           |     
     |                   =====================                   |     
     |                         S. Grimme                         |     
     |          Mulliken Center for Theoretical Chemistry        |     
     |                    University of Bonn                     |     
      -----------------------------------------------------------      

   * xtb version 6.7.1 (edcfbbe) compiled by 'conda@afd1a870197c' on 2025-04-11

   xtb is free software: you can redistribute it and/or modify it under
   the terms of the GNU Lesser General Public License as published by
   the Free Software Foundation, either version 3 of the License, or
   (at your option) any later version.
   
   xtb is distributed in the hope that it will be useful,
   but WITHOUT ANY WARRANTY; without even the implied warranty of
   MERCHANTABILITY or FITNESS FOR A PARTICULAR PURPOSE.  See the
   GNU Lesser General Public License for more details.
   
   Cite this work as:
   * C. Bannwarth, E. Caldeweyher, S. Ehlert, A. Hansen, P. Pracht,
     J. Seibert, S. Spicher, S. Grimme, WIREs Comput. Mol. Sci., 2020, 11,
     e01493. DOI: 10.1002/wcms.1493
   
   for GFN2-xTB:
   * C. Bannwarth, S. Ehlert and S. Grimme., J. Chem. Theory Comput., 2019,
     15, 1652-1671. DOI: 10.1021/acs.jctc.8b01176
   for GFN1-xTB:
   * S. Grimme, C. Bannwarth, P. Shushkov, J. Chem. Theory Comput., 2017,
     13, 1989-2009. DOI: 10.1021/acs.jctc.7b00118
   for GFN0-xTB:
   * P. Pracht, E. Caldeweyher, S. Ehlert, S. Grimme, ChemRxiv, 2019, preprint.
     DOI: 10.26434/chemrxiv.8326202.v1
   for GFN-FF:
   * S. Spicher and S. Grimme, Angew. Chem. Int. Ed., 2020, 59, 15665-15673.
     DOI: 10.1002/anie.202004239
   
   for ALPB and GBSA implicit solvation:
   * S. Ehlert, M. Stahn, S. Spicher, S. Grimme, J. Chem. Theory Comput.,
     2021, 17, 4250-4261. DOI: 10.1021/acs.jctc.1c00471
   
   for ddCOSMO and CPCM-X implicit solvation:
   * M. Stahn, S. Ehlert, S. Grimme, J. Phys. Chem. A,
     2023, XX, XXXX-XXXX. DOI: 10.1021/acs.jpca.3c04382
   
   for DFT-D4:
   * E. Caldeweyher, C. Bannwarth and S. Grimme, J. Chem. Phys., 2017,
     147, 034112. DOI: 10.1063/1.4993215
   * E. Caldeweyher, S. Ehlert, A. Hansen, H. Neugebauer, S. Spicher,
     C. Bannwarth and S. Grimme, J. Chem. Phys., 2019, 150, 154122.
     DOI: 10.1063/1.5090222
   * E. Caldeweyher, J.-M. Mewes, S. Ehlert and S. Grimme, Phys. Chem. Chem. Phys.
     2020, 22, 8499-8512. DOI: 10.1039/D0CP00502A
   
   for sTDA-xTB:
   * S. Grimme and C. Bannwarth, J. Chem. Phys., 2016, 145, 054103.
     DOI: 10.1063/1.4959605
   
   in the mass-spec context:
   * V. Asgeirsson, C. Bauer and S. Grimme, Chem. Sci., 2017, 8, 4879.
     DOI: 10.1039/c7sc00601b
   * J. Koopman and S. Grimme, ACS Omega 2019, 4, 12, 15120-15133.
     DOI: 10.1021/acsomega.9b02011
   
   for metadynamics refer to:
   * S. Grimme, J. Chem. Theory Comput., 2019, 155, 2847-2862
     DOI: 10.1021/acs.jctc.9b00143
   
   for SPH calculations refer to:
   * S. Spicher and S. Grimme, J. Chem. Theory Comput., 2021, 17, 1701-1714
     DOI: 10.1021/acs.jctc.0c01306
   
   for ONIOM refer to:
   * C. Plett, A. Katbashev, S. Ehlert, S. Grimme, M. Bursch,
     Phys. Chem. Chem. Phys., 2023, 25, 17860-17868. DOI: 10.1039/D3CP02178E
   
   for DIPRO refer to:
   * J. Kohn, N. Gildemeister, S. Grimme, D. Fazzi, A. Hansen,
     J. Chem. Phys., 2023, just accepted.
   
   for PTB refer to:
   * S. Grimme, M. Mueller, A. Hansen, J. Chem. Phys., 2023, 158, 124111.
     DOI: 10.1063/5.0137838
   
   with help from (in alphabetical order)
   P. Atkinson, C. Bannwarth, F. Bohle, G. Brandenburg, E. Caldeweyher
   M. Checinski, S. Dohm, S. Ehlert, S. Ehrlich, I. Gerasimov, C. Hölzer
   A. Katbashev, J. Kohn, J. Koopman, C. Lavigne, S. Lehtola, F. März, M. Müller,
   F. Musil, H. Neugebauer, J. Pisarek, C. Plett, P. Pracht, F. Pultar,
   J. Seibert, P. Shushkov, S. Spicher, M. Stahn, M. Steiner, T. Strunk,
   J. Stückrath, T. Rose, and J. Unsleber
   
 * started run on 2025/05/01 at 18:01:47.840     
   ID    Z sym.   atoms
    1    7 N      1, 9, 17, 29, 36, 42, 45, 46, 53, 55-57, 65, 73, 80, 81,
                  89, 97, 108, 116, 123
    2    6 C      2, 3, 5, 6, 8, 10, 11, 13-16, 18, 19, 21-27, 30, 31, 33-35,
                  37, 38, 40, 41, 43, 44, 47, 48, 50-52, 54, 58, 59, 61, 62,
                  66, 67, 69-72, 74, 75, 77, 78, 82, 83, 85-88, 90, 91, 93,
                  94, 98, 99, 101-107, 109, 110, 112-115, 117, 118, 120, 122,
                  124, 125, 127, 128
    3    8 O      4, 12, 20, 28, 32, 39, 49, 60, 63, 64, 68, 76, 79, 84, 92,
                  95, 96, 100, 111, 119, 121, 126, 129, 130
    4   16 S      7
    5    1 H      131-308

           -------------------------------------------------
          |                Calculation Setup                |
           -------------------------------------------------

          program call               : xtb /tmp/tmp5xng5esv/HID/input.xyz --alpb ether --chrg -1 --input /tmp/tmp5xng5esv/HID/constraints.inp --gfn 2
          hostname                   : fedora
          coordinate file            : /tmp/tmp5xng5esv/HID/input.xyz
          omp threads                :                    32


molecular fragmentation (1/2 indicates fragments):
111111112222222222222222222222222222222222222222222222222222222222222222
222222222222222222222222222222222222222222222222222222222222222222222222
222221111111111122222222222222222222222222222222222222222222222222222222
222222222222222222222222222222222222222222222222222222222222222222222222
22222222222222222222
# atoms in fragment 1/2:    19   289
 fragment masses (1/2) :      133.21     1765.29
CMA distance (Bohr)    :  13.910
constraining FC (au)   :  0.0500

           -------------------------------------------------
          |                 G F N 2 - x T B                 |
           -------------------------------------------------

        Reference                      10.1021/acs.jctc.8b01176
      * Hamiltonian:
        H0-scaling (s, p, d)           1.850000    2.230000    2.230000
        zeta-weighting                 0.500000
      * Dispersion:
        s8                             2.700000
        a1                             0.520000
        a2                             5.000000
        s9                             5.000000
      * Repulsion:
        kExp                           1.500000    1.000000
        rExp                           1.000000
      * Coulomb:
        alpha                          2.000000
        third order                    shell-resolved
        anisotropic                    true
        a3                             3.000000
        a5                             4.000000
        cn-shift                       1.200000
        cn-exp                         4.000000
        max-rad                        5.000000

      * Solvation model:               ALPB
        Solvent                        ether
        Parameter file                 internal GFN2-xTB/ALPB
        Dielectric constant                4.3300E+00
        Reference state                gsolv [1 M gas/solution]
        Free energy shift                  4.9534E-03 Eh       3.1083E+00 kcal/mol
        Temperature                        2.9815E+02 K
        Density                            7.1300E-01 kg/L
        Solvent mass                       7.4120E+01 g/mol
        Interaction kernel             P16
        Born radius scaling (c1)           1.5847E+00
        Born radii integrator          GBOBC
        Born offset                        0.0000E+00 a0       0.0000E+00 AA
        H-bond correction              true
        Ion screening                  false
        Surface tension                    1.0000E-05 Eh       1.5569E+01 dyn/cm
        Grid points                               230 per atom

          ...................................................
          :                      SETUP                      :
          :.................................................:
          :  # basis functions                 704          :
          :  # atomic orbitals                 703          :
          :  # shells                          439          :
          :  # electrons                       770          :
          :  max. iterations                   250          :
          :  Hamiltonian                  GFN2-xTB          :
          :  restarted?                      false          :
          :  GBSA solvation                   true          :
          :  PC potential                    false          :
          :  electronic temp.          300.0000000     K    :
          :  accuracy                    1.0000000          :
          :  -> integral cutoff          0.2500000E+02      :
          :  -> integral neglect         0.1000000E-07      :
          :  -> SCF convergence          0.1000000E-05 Eh   :
          :  -> wf. convergence          0.1000000E-03 e    :
          :  Broyden damping             0.4000000          :
          :  net charge                         -1          :
          :  unpaired electrons                  0          :
          ...................................................

 iter      E             dE          RMSdq      gap      omega  full diag
   1   -436.7213088 -0.436721E+03  0.429E+00    0.04       0.0  T
   2   -436.1956076  0.525701E+00  0.287E+00    0.14       1.0  T
   3   -437.7793781 -0.158377E+01  0.203E+00    0.18       1.0  T
   4   -438.2208395 -0.441461E+00  0.127E+00    0.10       1.0  T
   5   -438.3536214 -0.132782E+00  0.106E+00    0.50       1.0  T
   6   -437.9671720  0.386449E+00  0.120E+00    0.13       1.0  T
   7   -438.3214849 -0.354313E+00  0.822E-01    0.26       1.0  T
   8   -438.4776405 -0.156156E+00  0.741E-01    0.77       1.0  T
   9   -438.4765545  0.108602E-02  0.692E-01    0.50       1.0  T
  10   -438.2308821  0.245672E+00  0.961E-01    0.15       1.0  T
  11   -438.2649012 -0.340190E-01  0.889E-01    0.14       1.0  T
  12   -438.6141777 -0.349277E+00  0.379E-01    0.01       1.0  T
  13   -438.3830011  0.231177E+00  0.780E-01    0.05       1.0  T
  14   -438.4108936 -0.278925E-01  0.703E-01    0.14       1.0  T
  15   -438.5734025 -0.162509E+00  0.455E-01    0.14       1.0  T
  16   -438.6267738 -0.533713E-01  0.305E-01    0.02       1.0  T
  17   -438.6536100 -0.268362E-01  0.225E-01    0.06       1.0  T
  18   -438.6468108  0.679927E-02  0.246E-01    0.08       1.0  T
  19   -438.6380252  0.878555E-02  0.266E-01    0.01       1.0  T
  20   -438.6544994 -0.164742E-01  0.202E-01    0.04       1.0  T
  21   -438.6706472 -0.161478E-01  0.990E-02    0.04       1.0  T
  22   -438.6635380  0.710921E-02  0.147E-01    0.03       1.0  T
  23   -438.6601733  0.336464E-02  0.171E-01    0.02       1.0  T
  24   -438.6687161 -0.854279E-02  0.115E-01    0.02       1.0  T
  25   -438.6746709 -0.595474E-02  0.494E-02    0.04       1.0  T
  26   -438.6755148 -0.843984E-03  0.307E-02    0.04       1.0  T
  27   -438.6756574 -0.142605E-03  0.266E-02    0.04       1.0  T
  28   -438.6759875 -0.330072E-03  0.844E-03    0.04       1.0  T
  29   -438.6759693  0.182258E-04  0.974E-03    0.04       1.0  T
  30   -438.6759978 -0.284807E-04  0.606E-03    0.04       1.0  T
  31   -438.6760090 -0.112115E-04  0.356E-03    0.04       1.6  T
  32   -438.6760102 -0.118710E-05  0.269E-03    0.04       2.1  T
  33   -438.6760075  0.263518E-05  0.337E-03    0.04       1.7  T
  34   -438.6760122 -0.469628E-05  0.149E-03    0.04       3.8  T
  35   -438.6760132 -0.948431E-06  0.618E-04    0.04       9.2  T
  36   -438.6760133 -0.152880E-06  0.277E-04    0.04      20.6  T

   *** convergence criteria satisfied after 36 iterations ***

         #    Occupation            Energy/Eh            Energy/eV
      -------------------------------------------------------------
         1        2.0000           -0.7351189             -20.0036
       ...           ...                  ...                  ...
       379        1.9996           -0.3555399              -9.6747
       380        1.9945           -0.3530343              -9.6066
       381        1.9890           -0.3523726              -9.5885
       382        1.9697           -0.3514033              -9.5622
       383        1.9334           -0.3506358              -9.5413
       384        1.6685           -0.3489717              -9.4960
       385        1.5895           -0.3487222              -9.4892 (HOMO)
       386        0.8561           -0.3471608              -9.4467 (LUMO)
       387                         -0.2839747              -7.7273
       388                         -0.2743397              -7.4652
       389                         -0.2702579              -7.3541
       390                         -0.2680843              -7.2949
       ...                                ...                  ...
       703                          1.1943278              32.4993
      -------------------------------------------------------------
                  HL-Gap            0.0015614 Eh            0.0425 eV
             Fermi-level           -0.3474362 Eh           -9.4542 eV

 SCC (total)                   0 d,  0 h,  0 min,  2.304 sec
 SCC setup                      ...        0 min,  0.005 sec (  0.227%)
 Dispersion                     ...        0 min,  0.015 sec (  0.657%)
 classical contributions        ...        0 min,  0.001 sec (  0.026%)
 integral evaluation            ...        0 min,  0.024 sec (  1.029%)
 iterations                     ...        0 min,  2.129 sec ( 92.430%)
 molecular gradient             ...        0 min,  0.126 sec (  5.475%)
 printout                       ...        0 min,  0.004 sec (  0.155%)

         :::::::::::::::::::::::::::::::::::::::::::::::::::::
         ::                     SUMMARY                     ::
         :::::::::::::::::::::::::::::::::::::::::::::::::::::
         :: total energy            -431.496068828838 Eh    ::
         :: total w/o Gsasa/hb      -431.394084830367 Eh    ::
         :: gradient norm              1.280067931488 Eh/a0 ::
         :: HOMO-LUMO gap              0.042488456249 eV    ::
         ::.................................................::
         :: SCC energy              -438.640182653411 Eh    ::
         :: -> isotropic ES            1.180565139399 Eh    ::
         :: -> anisotropic ES          0.078897785629 Eh    ::
         :: -> anisotropic XC          0.260614682355 Eh    ::
         :: -> dispersion             -0.366915154152 Eh    ::
         :: -> Gsolv                  -0.282711201696 Eh    ::
         ::    -> Gelec               -0.180727203225 Eh    ::
         ::    -> Gsasa               -0.088658080954 Eh    ::
         ::    -> Ghb                 -0.018279355094 Eh    ::
         ::    -> Gshift               0.004953437577 Eh    ::
         :: repulsion energy           7.144113824573 Eh    ::
         :: add. restraining           0.000000000000 Eh    ::
         :: total charge              -0.999999999998 e     ::
         :::::::::::::::::::::::::::::::::::::::::::::::::::::

           -------------------------------------------------
          |                Property Printout                |
           -------------------------------------------------

    * Orbital Energies and Occupations

         #    Occupation            Energy/Eh            Energy/eV
      -------------------------------------------------------------
         1        2.0000           -0.7351189             -20.0036
       ...           ...                  ...                  ...
       373        2.0000           -0.3651840              -9.9372
       374        2.0000           -0.3643560              -9.9146
       375        2.0000           -0.3638927              -9.9020
       376        2.0000           -0.3586576              -9.7596
       377        1.9999           -0.3570948              -9.7170
       378        1.9998           -0.3563321              -9.6963
       379        1.9996           -0.3555399              -9.6747
       380        1.9945           -0.3530343              -9.6066
       381        1.9890           -0.3523726              -9.5885
       382        1.9697           -0.3514033              -9.5622
       383        1.9334           -0.3506358              -9.5413
       384        1.6685           -0.3489717              -9.4960
       385        1.5895           -0.3487222              -9.4892 (HOMO)
       386        0.8561           -0.3471608              -9.4467 (LUMO)
       387                         -0.2839747              -7.7273
       388                         -0.2743397              -7.4652
       389                         -0.2702579              -7.3541
       390                         -0.2680843              -7.2949
       391                         -0.2680207              -7.2932
       392                         -0.2652799              -7.2186
       393                         -0.2630921              -7.1591
       394                         -0.2533522              -6.8941
       395                         -0.2257007              -6.1416
       396                         -0.2224822              -6.0540
       ...                                ...                  ...
       703                          1.1943278              32.4993
      -------------------------------------------------------------
                  HL-Gap            0.0015614 Eh            0.0425 eV
             Fermi-level           -0.3474362 Eh           -9.4542 eV

     #   Z          covCN         q      C6AA      α(0)
     1   7 N        2.632    -0.366    29.455     8.060
     2   6 C        3.786     0.033    20.032     6.375
     3   6 C        2.767     0.200    23.746     7.980
     4   8 O        0.856    -0.370    21.087     6.157
     5   6 C        3.851    -0.062    21.657     6.619
     6   6 C        3.802    -0.012    20.796     6.493
     7  16 S        1.982    -0.198   149.492    20.579
     8   6 C        3.750    -0.045    21.437     6.603
     9   7 N        2.630    -0.369    29.520     8.069
    10   6 C        3.784     0.034    20.021     6.374
    11   6 C        2.766     0.207    23.608     7.957
    12   8 O        0.856    -0.373    21.142     6.165
    13   6 C        3.817    -0.075    21.910     6.662
    14   6 C        3.853    -0.013    20.767     6.481
    15   6 C        3.761    -0.117    22.795     6.806
    16   6 C        3.763    -0.110    22.654     6.784
    17   7 N        2.630    -0.348    28.967     7.993
    18   6 C        3.793     0.031    20.066     6.379
    19   6 C        2.759     0.267    22.486     7.765
    20   8 O        0.858    -0.489    23.547     6.506
    21   6 C        3.824    -0.074    21.902     6.660
    22   6 C        2.969    -0.002    28.066     8.690
    23   6 C        2.933    -0.050    29.250     8.870
    24   6 C        2.936    -0.044    29.095     8.846
    25   6 C        2.921    -0.081    30.026     8.986
    26   6 C        2.924    -0.064    29.597     8.922
    27   6 C        2.854     0.146    24.819     8.165
    28   8 O        1.662    -0.447    21.774     6.299
    29   7 N        2.694    -0.167    24.609     7.368
    30   6 C        3.801     0.013    20.353     6.423
    31   6 C        2.764     0.266    22.519     7.771
    32   8 O        0.891    -0.502    23.810     6.543
    33   6 C        3.855    -0.013    20.777     6.483
    34   6 C        3.762    -0.118    22.807     6.808
    35   6 C        3.761    -0.127    22.981     6.834
    36   7 N        2.692    -0.183    24.961     7.420
    37   6 C        3.804     0.034    20.008     6.368
    38   6 C        2.752     0.266    22.502     7.768
    39   8 O        0.858    -0.497    23.724     6.530
    40   6 C        3.814    -0.081    22.038     6.682
    41   6 C        3.103     0.018    27.472     8.589
    42   7 N        2.828    -0.048    22.158     6.991
    43   6 C        3.078    -0.007    28.112     8.693
    44   6 C        2.144     0.072    28.950     8.698
    45   7 N        1.953    -0.242    27.154     7.727
    46   7 N        2.684    -0.179    24.887     7.409
    47   6 C        3.787     0.018    20.292     6.416
    48   6 C        2.752     0.272    22.396     7.749
    49   8 O        0.859    -0.487    23.488     6.498
    50   6 C        3.806    -0.071    21.845     6.654
    51   6 C        3.806    -0.071    21.851     6.654
    52   6 C        3.742    -0.023    21.065     6.548
    53   7 N        2.700    -0.137    23.963     7.270
    54   6 C        2.735     0.236    23.049     7.860
    55   7 N        2.654    -0.248    26.459     7.639
    56   7 N        2.661    -0.268    26.950     7.710
    57   7 N        2.688    -0.192    25.157     7.449
    58   6 C        3.797     0.028    20.105     6.384
    59   6 C        2.757     0.268    22.481     7.764
    60   8 O        0.858    -0.485    23.463     6.494
    61   6 C        3.811    -0.072    21.860     6.655
    62   6 C        2.688     0.384    20.498     7.409
    63   8 O        0.857    -0.541    24.715     6.665
    64   8 O        0.857    -0.538    24.648     6.656
    65   7 N        2.693    -0.157    24.391     7.335
    66   6 C        3.796     0.028    20.116     6.386
    67   6 C        2.771     0.208    23.593     7.955
    68   8 O        0.856    -0.351    20.732     6.105
    69   6 C        3.817    -0.077    21.955     6.669
    70   6 C        3.853    -0.012    20.755     6.480
    71   6 C        3.762    -0.125    22.946     6.828
    72   6 C        3.761    -0.115    22.747     6.799
    73   7 N        2.629    -0.371    29.589     8.079
    74   6 C        3.787     0.046    19.822     6.341
    75   6 C        2.764     0.193    23.885     8.004
    76   8 O        0.856    -0.384    21.354     6.196
    77   6 C        3.814    -0.090    22.205     6.707
    78   6 C        2.744     0.285    22.167     7.709
    79   8 O        0.859    -0.524    24.314     6.611
    80   7 N        2.639    -0.274    27.091     7.730
    81   7 N        2.642    -0.355    29.152     8.019
    82   6 C        3.794     0.038    19.936     6.358
    83   6 C        2.777     0.206    23.628     7.962
    84   8 O        0.856    -0.353    20.756     6.108
    85   6 C        3.859    -0.019    20.881     6.499
    86   6 C        3.812    -0.066    21.747     6.638
    87   6 C        3.760    -0.114    22.738     6.798
    88   6 C        3.760    -0.113    22.711     6.794
    89   7 N        2.630    -0.319    28.221     7.890
    90   6 C        3.795     0.038    19.947     6.360
    91   6 C        2.762     0.281    22.246     7.724
    92   8 O        0.859    -0.470    23.130     6.448
    93   6 C        3.814    -0.073    21.888     6.659
    94   6 C        2.689     0.372    20.687     7.444
    95   8 O        0.856    -0.548    24.873     6.687
    96   8 O        0.857    -0.532    24.499     6.636
    97   7 N        2.691    -0.169    24.655     7.375
    98   6 C        3.794     0.033    20.027     6.373
    99   6 C        2.763     0.201    23.730     7.978
   100   8 O        0.856    -0.346    20.623     6.089
   101   6 C        3.818    -0.075    21.915     6.662
   102   6 C        2.973     0.010    27.792     8.647
   103   6 C        2.933    -0.044    29.095     8.846
   104   6 C        2.934    -0.049    29.214     8.864
   105   6 C        2.923    -0.036    28.904     8.817
   106   6 C        2.923    -0.041    29.018     8.834
   107   6 C        2.931    -0.039    28.958     8.825
   108   7 N        2.631    -0.358    29.222     8.028
   109   6 C        3.787     0.024    20.183     6.399
   110   6 C        2.758     0.269    22.451     7.759
   111   8 O        0.860    -0.500    23.784     6.539
   112   6 C        3.817    -0.074    21.901     6.660
   113   6 C        3.852    -0.011    20.733     6.476
   114   6 C        3.764    -0.112    22.693     6.790
   115   6 C        3.762    -0.119    22.817     6.809
   116   7 N        2.688    -0.149    24.234     7.311
   117   6 C        3.794     0.015    20.336     6.422
   118   6 C        2.761     0.167    24.384     8.087
   119   8 O        0.856    -0.365    20.990     6.142
   120   6 C        3.727     0.113    18.831     6.196
   121   8 O        1.651    -0.462    22.095     6.345
   122   6 C        3.759    -0.125    22.938     6.828
   123   7 N        2.628    -0.366    29.441     8.059
   124   6 C        3.783     0.035    20.002     6.371
   125   6 C        2.764     0.197    23.796     7.989
   126   8 O        0.856    -0.376    21.204     6.174
   127   6 C        3.809    -0.088    22.170     6.702
   128   6 C        2.687     0.364    20.828     7.469
   129   8 O        0.856    -0.614    26.467     6.898
   130   8 O        0.857    -0.608    26.312     6.877
   131   1 H        0.980    -0.068     4.540     3.329
   132   1 H        0.980    -0.009     3.205     2.797
   133   1 H        0.980    -0.021     3.441     2.899
   134   1 H        0.980     0.019     2.740     2.586
   135   1 H        0.980    -0.002     3.083     2.744
   136   1 H        0.980    -0.007     3.177     2.785
   137   1 H        0.980     0.004     2.979     2.697
   138   1 H        0.980    -0.007     3.171     2.783
   139   1 H        0.980    -0.001     3.068     2.737
   140   1 H        0.980     0.009     2.890     2.657
   141   1 H        0.980    -0.001     3.070     2.738
   142   1 H        0.980    -0.001     3.072     2.739
   143   1 H        0.980    -0.007     3.172     2.783
   144   1 H        0.980    -0.001     3.068     2.737
   145   1 H        0.980    -0.000     3.055     2.731
   146   1 H        0.980    -0.004     3.114     2.758
   147   1 H        0.980    -0.004     3.123     2.762
   148   1 H        0.980    -0.006     3.152     2.774
   149   1 H        0.980    -0.001     3.071     2.738
   150   1 H        0.860     0.165     1.301     1.787
   151   1 H        0.860     0.155     1.367     1.832
   152   1 H        0.927     0.083     1.951     2.184
   153   1 H        0.929     0.065     2.141     2.288
   154   1 H        0.927     0.040     2.448     2.447
   155   1 H        0.927     0.050     2.322     2.383
   156   1 H        0.927     0.055     2.257     2.349
   157   1 H        0.927     0.063     2.158     2.297
   158   1 H        0.927     0.059     2.205     2.322
   159   1 H        0.927     0.048     2.347     2.396
   160   1 H        0.927     0.037     2.490     2.467
   161   1 H        0.860     0.168     1.286     1.777
   162   1 H        0.860     0.152     1.388     1.845
   163   1 H        0.927     0.065     2.137     2.286
   164   1 H        0.929     0.063     2.168     2.302
   165   1 H        0.927     0.050     2.318     2.381
   166   1 H        0.927     0.059     2.213     2.326
   167   1 H        0.927     0.026     2.643     2.542
   168   1 H        0.927     0.044     2.395     2.420
   169   1 H        0.927     0.040     2.446     2.446
   170   1 H        0.927     0.040     2.445     2.445
   171   1 H        0.927     0.042     2.416     2.431
   172   1 H        0.927     0.037     2.484     2.464
   173   1 H        0.927     0.036     2.498     2.471
   174   1 H        0.860     0.165     1.302     1.787
   175   1 H        0.860     0.177     1.234     1.740
   176   1 H        0.927     0.044     2.396     2.421
   177   1 H        0.927     0.047     2.354     2.399
   178   1 H        0.927     0.063     2.168     2.303
   179   1 H        0.929     0.042     2.427     2.436
   180   1 H        0.929     0.052     2.296     2.370
   181   1 H        0.929     0.046     2.365     2.404
   182   1 H        0.929     0.058     2.226     2.333
   183   1 H        0.807     0.345     0.600     1.216
   184   1 H        0.861     0.206     1.077     1.626
   185   1 H        0.927     0.088     1.902     2.157
   186   1 H        0.927     0.039     2.456     2.451
   187   1 H        0.927     0.050     2.325     2.384
   188   1 H        0.927     0.042     2.423     2.434
   189   1 H        0.927     0.049     2.329     2.386
   190   1 H        0.927     0.048     2.342     2.393
   191   1 H        0.927     0.049     2.336     2.390
   192   1 H        0.927     0.056     2.243     2.342
   193   1 H        0.861     0.238     0.929     1.510
   194   1 H        0.927     0.071     2.078     2.254
   195   1 H        0.926     0.072     2.061     2.245
   196   1 H        0.927     0.086     1.920     2.167
   197   1 H        0.929     0.066     2.133     2.284
   198   1 H        0.861     0.225     0.988     1.557
   199   1 H        0.927     0.084     1.942     2.179
   200   1 H        0.926     0.068     2.108     2.270
   201   1 H        0.927     0.077     2.014     2.219
   202   1 H        0.927     0.058     2.225     2.333
   203   1 H        0.927     0.051     2.312     2.378
   204   1 H        0.926     0.101     1.778     2.085
   205   1 H        0.927     0.081     1.973     2.196
   206   1 H        0.861     0.259     0.848     1.443
   207   1 H        0.861     0.230     0.967     1.540
   208   1 H        0.861     0.247     0.895     1.482
   209   1 H        0.861     0.249     0.889     1.477
   210   1 H        0.861     0.214     1.035     1.594
   211   1 H        0.927     0.109     1.709     2.044
   212   1 H        0.927     0.080     1.980     2.200
   213   1 H        0.927     0.071     2.071     2.250
   214   1 H        0.861     0.218     1.018     1.580
   215   1 H        0.927     0.089     1.886     2.147
   216   1 H        0.929     0.069     2.092     2.262
   217   1 H        0.927     0.066     2.132     2.283
   218   1 H        0.927     0.065     2.141     2.288
   219   1 H        0.927     0.031     2.574     2.509
   220   1 H        0.927     0.052     2.301     2.372
   221   1 H        0.927     0.038     2.480     2.463
   222   1 H        0.927     0.048     2.341     2.393
   223   1 H        0.927     0.043     2.408     2.427
   224   1 H        0.926     0.045     2.387     2.416
   225   1 H        0.927     0.045     2.381     2.413
   226   1 H        0.860     0.161     1.329     1.806
   227   1 H        0.860     0.165     1.304     1.789
   228   1 H        0.927     0.078     2.004     2.214
   229   1 H        0.929     0.070     2.081     2.256
   230   1 H        0.927     0.080     1.978     2.199
   231   1 H        0.927     0.076     2.021     2.223
   232   1 H        0.861     0.242     0.916     1.499
   233   1 H        0.861     0.215     1.032     1.592
   234   1 H        0.860     0.151     1.396     1.851
   235   1 H        0.860     0.162     1.320     1.800
   236   1 H        0.927     0.028     2.619     2.531
   237   1 H        0.929     0.056     2.248     2.344
   238   1 H        0.927     0.054     2.271     2.356
   239   1 H        0.927     0.044     2.391     2.418
   240   1 H        0.927     0.040     2.454     2.450
   241   1 H        0.927     0.040     2.452     2.448
   242   1 H        0.927     0.037     2.484     2.465
   243   1 H        0.927     0.051     2.305     2.374
   244   1 H        0.927     0.047     2.353     2.399
   245   1 H        0.927     0.032     2.556     2.500
   246   1 H        0.927     0.051     2.304     2.374
   247   1 H        0.860     0.180     1.216     1.727
   248   1 H        0.860     0.171     1.267     1.763
   249   1 H        0.927     0.056     2.241     2.341
   250   1 H        0.927     0.055     2.257     2.349
   251   1 H        0.927     0.065     2.144     2.290
   252   1 H        0.861     0.199     1.113     1.652
   253   1 H        0.926     0.118     1.626     1.994
   254   1 H        0.929     0.073     2.048     2.238
   255   1 H        0.927     0.087     1.913     2.163
   256   1 H        0.927     0.058     2.218     2.329
   257   1 H        0.929     0.032     2.555     2.500
   258   1 H        0.929     0.052     2.293     2.368
   259   1 H        0.929     0.045     2.381     2.413
   260   1 H        0.929     0.040     2.449     2.447
   261   1 H        0.929     0.042     2.422     2.434
   262   1 H        0.860     0.164     1.307     1.791
   263   1 H        0.860     0.145     1.434     1.876
   264   1 H        0.927     0.065     2.146     2.291
   265   1 H        0.927     0.057     2.239     2.340
   266   1 H        0.927     0.037     2.483     2.464
   267   1 H        0.926     0.022     2.703     2.571
   268   1 H        0.927     0.043     2.414     2.430
   269   1 H        0.927     0.037     2.484     2.464
   270   1 H        0.926     0.040     2.445     2.445
   271   1 H        0.927     0.042     2.421     2.433
   272   1 H        0.927     0.039     2.461     2.453
   273   1 H        0.927     0.039     2.462     2.454
   274   1 H        0.861     0.221     1.005     1.570
   275   1 H        0.927     0.095     1.834     2.118
   276   1 H        0.929     0.111     1.690     2.033
   277   1 H        0.927     0.073     2.047     2.238
   278   1 H        0.804     0.300     0.721     1.334
   279   1 H        0.927     0.055     2.258     2.350
   280   1 H        0.926     0.049     2.330     2.387
   281   1 H        0.927     0.064     2.157     2.297
   282   1 H        0.860     0.154     1.375     1.837
   283   1 H        0.860     0.154     1.376     1.838
   284   1 H        0.927     0.077     2.011     2.218
   285   1 H        0.929     0.060     2.201     2.320
   286   1 H        0.927     0.033     2.538     2.491
   287   1 H        0.927     0.040     2.444     2.445
   288   1 H        1.012     0.070     2.073     2.249
   289   1 H        0.980     0.006     2.946     2.682
   290   1 H        0.980     0.022     2.688     2.562
   291   1 H        0.980    -0.019     3.402     2.882
   292   1 H        0.980    -0.001     3.061     2.734
   293   1 H        0.980     0.014     2.817     2.623
   294   1 H        0.980    -0.002     3.091     2.747
   295   1 H        0.980     0.007     2.923     2.672
   296   1 H        0.980    -0.001     3.058     2.732
   297   1 H        0.980    -0.010     3.235     2.810
   298   1 H        0.980     0.001     3.027     2.719
   299   1 H        0.980     0.002     3.012     2.712
   300   1 H        0.980     0.007     2.926     2.673
   301   1 H        0.980     0.001     3.037     2.723
   302   1 H        0.980     0.001     3.028     2.719
   303   1 H        0.980     0.004     2.984     2.699
   304   1 H        0.980     0.008     2.907     2.664
   305   1 H        0.980     0.006     2.949     2.683
   306   1 H        0.980     0.003     3.002     2.707
   307   1 H        0.860     0.215     1.033     1.592
   308   1 H        0.858     0.209     1.061     1.614

 Mol. C6AA /au·bohr⁶  :     804444.181808
 Mol. C8AA /au·bohr⁸  :   17404423.421087
 Mol. α(0) /au        :       1354.895907


Wiberg/Mayer (AO) data.
largest (>0.10) Wiberg bond orders for each atom

 ---------------------------------------------------------------------------
     #   Z sym  total        # sym  WBO       # sym  WBO       # sym  WBO
 ---------------------------------------------------------------------------
     1   7 N    2.999 --     2 C    1.019   151 H    0.960   150 H    0.947
     2   6 C    3.984 --     1 N    1.019     3 C    0.989     5 C    0.950
                           152 H    0.949
     3   6 C    3.897 --     4 O    1.882     2 C    0.989   153 H    0.949
     4   8 O    2.041 --     3 C    1.882
     5   6 C    3.996 --     6 C    1.009   154 H    0.971   155 H    0.968
                             2 C    0.950
     6   6 C    3.982 --     5 C    1.009     7 S    0.992   156 H    0.969
                           157 H    0.965
     7  16 S    2.104 --     8 C    1.010     6 C    0.992
     8   6 C    3.978 --     7 S    1.010   159 H    0.980   160 H    0.979
                           158 H    0.974
     9   7 N    2.996 --    10 C    1.008   161 H    0.956   162 H    0.954
    10   6 C    3.984 --     9 N    1.008    11 C    0.995   163 H    0.956
                            13 C    0.947
    11   6 C    3.894 --    12 O    1.881    10 C    0.995   164 H    0.950
    12   8 O    2.038 --    11 C    1.881
    13   6 C    3.992 --    14 C    0.996   165 H    0.973   166 H    0.967
                            10 C    0.947
    14   6 C    3.995 --    15 C    1.009    16 C    1.004    13 C    0.996
                           167 H    0.958
    15   6 C    3.995 --    14 C    1.009   168 H    0.985   170 H    0.985
                           169 H    0.978
    16   6 C    3.997 --    14 C    1.004   171 H    0.985   172 H    0.983
                           173 H    0.982
    17   7 N    2.984 --    18 C    1.022   174 H    0.956   175 H    0.942
    18   6 C    3.983 --    17 N    1.022   176 H    0.958    21 C    0.949
                            19 C    0.947
    19   6 C    3.945 --    20 O    1.640    29 N    1.289    18 C    0.947
    20   8 O    1.946 --    19 C    1.640    29 N    0.192
    21   6 C    3.983 --    22 C    1.010   177 H    0.958   178 H    0.957
                            18 C    0.949
    22   6 C    3.986 --    23 C    1.408    24 C    1.406    21 C    1.010
    23   6 C    3.991 --    25 C    1.447    22 C    1.408   179 H    0.972
                            26 C    0.109
    24   6 C    3.990 --    26 C    1.450    22 C    1.406   180 H    0.966
                            25 C    0.107
    25   6 C    3.988 --    23 C    1.447    27 C    1.371   181 H    0.971
                            24 C    0.107
    26   6 C    3.989 --    24 C    1.450    27 C    1.375   182 H    0.969
                            23 C    0.109
    27   6 C    3.932 --    26 C    1.375    25 C    1.371    28 O    1.061
    28   8 O    2.077 --    27 C    1.061   183 H    0.861
    29   7 N    3.463 --    19 C    1.289    30 C    0.977   184 H    0.922
                            20 O    0.192
    30   6 C    3.961 --    29 N    0.977    33 C    0.954   185 H    0.954
                            31 C    0.945
    31   6 C    3.948 --    32 O    1.558    36 N    1.344    30 C    0.945
    32   8 O    1.960 --    31 C    1.558    36 N    0.194
    33   6 C    3.991 --    35 C    1.009    34 C    1.008   186 H    0.966
                            30 C    0.954
    34   6 C    3.994 --    33 C    1.008   187 H    0.986   188 H    0.985
                           189 H    0.984
    35   6 C    3.994 --    33 C    1.009   191 H    0.983   190 H    0.982
                           192 H    0.974
    36   7 N    3.488 --    31 C    1.344    37 C    0.978   193 H    0.862
                            32 O    0.194
    37   6 C    3.968 --    36 N    0.978    40 C    0.960    38 C    0.942
                           194 H    0.938
    38   6 C    3.954 --    39 O    1.618    46 N    1.316    37 C    0.942
    39   8 O    1.935 --    38 C    1.618    46 N    0.201
    40   6 C    3.986 --    41 C    1.014   195 H    0.960    37 C    0.960
                           196 H    0.953
    41   6 C    3.909 --    43 C    1.495    42 N    1.205    40 C    1.014
                            44 C    0.129
    42   7 N    3.576 --    44 C    1.302    41 C    1.205   308 H    0.917
    43   6 C    3.910 --    41 C    1.495    45 N    1.286   197 H    0.908
    44   6 C    3.162 --    45 N    1.602    42 N    1.302    41 C    0.129
    45   7 N    3.041 --    44 C    1.602    43 C    1.286
    46   7 N    3.478 --    38 C    1.316    47 C    0.971   198 H    0.902
                            39 O    0.201
    47   6 C    3.959 --    50 C    0.973    46 N    0.971   199 H    0.944
                            48 C    0.937
    48   6 C    3.947 --    49 O    1.631    57 N    1.304    47 C    0.937
    49   8 O    1.946 --    48 C    1.631    57 N    0.192
    50   6 C    3.984 --    51 C    1.007    47 C    0.973   200 H    0.971
                           201 H    0.970
    51   6 C    3.994 --    50 C    1.007    52 C    0.994   203 H    0.979
                           202 H    0.970
    52   6 C    3.952 --    51 C    0.994    53 N    0.982   205 H    0.964
                           204 H    0.948
    53   7 N    3.468 --    54 C    1.309    52 C    0.982   307 H    0.922
                            55 N    0.103
    54   6 C    3.977 --    55 N    1.332    53 N    1.309    56 N    1.304
    55   7 N    3.408 --    54 C    1.332   207 H    0.923   206 H    0.865
                            53 N    0.103    56 N    0.101
    56   7 N    3.378 --    54 C    1.304   208 H    0.920   209 H    0.919
                            55 N    0.101
    57   7 N    3.456 --    48 C    1.304    58 C    0.968   210 H    0.861
                            49 O    0.192
    58   6 C    3.957 --    61 C    0.979    57 N    0.968    59 C    0.954
                           211 H    0.930
    59   6 C    3.950 --    60 O    1.605    65 N    1.310    58 C    0.954
    60   8 O    1.969 --    59 C    1.605    65 N    0.190
    61   6 C    3.867 --    58 C    0.979   212 H    0.964   213 H    0.950
                            62 C    0.885
    62   6 C    3.915 --    63 O    1.520    64 O    1.484    61 C    0.885
    63   8 O    1.790 --    62 C    1.520    64 O    0.220
    64   8 O    1.757 --    62 C    1.484    63 O    0.220
    65   7 N    3.481 --    59 C    1.310    66 C    0.959   214 H    0.921
                            60 O    0.190
    66   6 C    3.958 --    67 C    0.971    69 C    0.969    65 N    0.959
                           215 H    0.954
    67   6 C    3.899 --    68 O    1.912    66 C    0.971   216 H    0.949
    68   8 O    2.051 --    67 C    1.912
    69   6 C    3.985 --    70 C    0.994   217 H    0.974   218 H    0.971
                            66 C    0.969
    70   6 C    3.995 --    71 C    1.009    72 C    1.006    69 C    0.994
                           219 H    0.972
    71   6 C    3.995 --    70 C    1.009   220 H    0.986   222 H    0.986
                           221 H    0.981
    72   6 C    3.995 --    70 C    1.006   225 H    0.986   224 H    0.986
                           223 H    0.982
    73   7 N    2.992 --    74 C    1.014   226 H    0.960   227 H    0.958
    74   6 C    3.988 --    73 N    1.014    75 C    1.007    77 C    0.969
                           228 H    0.913
    75   6 C    3.907 --    76 O    1.862    74 C    1.007   229 H    0.948
    76   8 O    2.028 --    75 C    1.862
    77   6 C    3.993 --    74 C    0.969   231 H    0.968    78 C    0.966
                           230 H    0.951
    78   6 C    3.949 --    79 O    1.607    80 N    1.349    77 C    0.966
    79   8 O    1.917 --    78 C    1.607    80 N    0.205
    80   7 N    3.432 --    78 C    1.349   233 H    0.926   232 H    0.884
                            79 O    0.205
    81   7 N    2.989 --    82 C    1.000   234 H    0.963   235 H    0.941
    82   6 C    3.985 --    81 N    1.000    83 C    0.986   236 H    0.960
                            85 C    0.958
    83   6 C    3.902 --    84 O    1.906    82 C    0.986   237 H    0.950
    84   8 O    2.045 --    83 C    1.906
    85   6 C    3.990 --    87 C    1.005    86 C    0.991   238 H    0.967
                            82 C    0.958
    86   6 C    3.998 --    88 C    1.020    85 C    0.991   240 H    0.978
                           239 H    0.961
    87   6 C    3.995 --    85 C    1.005   241 H    0.986   242 H    0.984
                           243 H    0.981
    88   6 C    3.993 --    86 C    1.020   244 H    0.986   246 H    0.979
                           245 H    0.977
    89   7 N    2.997 --    90 C    1.010   248 H    0.954   247 H    0.952
    90   6 C    3.971 --    89 N    1.010   249 H    0.960    91 C    0.952
                            93 C    0.947
    91   6 C    3.948 --    92 O    1.629    97 N    1.299    90 C    0.952
    92   8 O    1.962 --    91 C    1.629    97 N    0.193
    93   6 C    3.853 --   250 H    0.974   251 H    0.964    90 C    0.947
                            94 C    0.871
    94   6 C    3.910 --    96 O    1.514    95 O    1.502    93 C    0.871
    95   8 O    1.779 --    94 C    1.502    96 O    0.227
    96   8 O    1.789 --    94 C    1.514    95 O    0.227
    97   7 N    3.469 --    91 C    1.299    98 C    0.973   252 H    0.931
                            92 O    0.193
    98   6 C    3.959 --    99 C    0.993    97 N    0.973   101 C    0.951
                           253 H    0.914
    99   6 C    3.905 --   100 O    1.888    98 C    0.993   254 H    0.947
   100   8 O    2.056 --    99 C    1.888
   101   6 C    3.986 --   102 C    1.013   256 H    0.972   255 H    0.963
                            98 C    0.951
   102   6 C    3.988 --   104 C    1.420   103 C    1.406   101 C    1.013
                           107 C    0.109
   103   6 C    3.994 --   105 C    1.454   102 C    1.406   257 H    0.972
                           106 C    0.109
   104   6 C    3.992 --   106 C    1.434   102 C    1.420   258 H    0.969
                           105 C    0.115
   105   6 C    3.993 --   103 C    1.454   107 C    1.426   259 H    0.973
                           104 C    0.115
   106   6 C    3.994 --   107 C    1.453   104 C    1.434   260 H    0.971
                           103 C    0.109
   107   6 C    3.993 --   106 C    1.453   105 C    1.426   261 H    0.972
                           102 C    0.109
   108   7 N    2.995 --   109 C    1.018   263 H    0.959   262 H    0.950
   109   6 C    3.981 --   108 N    1.018   112 C    0.968   110 C    0.949
                           264 H    0.947
   110   6 C    3.947 --   111 O    1.580   116 N    1.332   109 C    0.949
   111   8 O    1.939 --   110 C    1.580   116 N    0.188
   112   6 C    3.986 --   113 C    0.991   266 H    0.975   265 H    0.970
                           109 C    0.968
   113   6 C    3.995 --   115 C    1.009   114 C    1.006   112 C    0.991
                           267 H    0.973
   114   6 C    3.995 --   113 C    1.006   270 H    0.986   268 H    0.986
                           269 H    0.984
   115   6 C    3.997 --   113 C    1.009   271 H    0.987   272 H    0.986
                           273 H    0.980
   116   7 N    3.497 --   110 C    1.332   117 C    0.979   274 H    0.907
                           111 O    0.188
   117   6 C    3.966 --   116 N    0.979   118 C    0.965   120 C    0.948
                           275 H    0.937
   118   6 C    3.881 --   119 O    1.897   117 C    0.965   276 H    0.844
   119   8 O    2.047 --   118 C    1.897
   120   6 C    3.951 --   122 C    1.005   121 O    0.983   277 H    0.959
                           117 C    0.948
   121   8 O    1.957 --   120 C    0.983   278 H    0.871
   122   6 C    3.992 --   120 C    1.005   281 H    0.981   280 H    0.978
                           279 H    0.977
   123   7 N    2.996 --   124 C    1.015   283 H    0.962   282 H    0.961
   124   6 C    3.983 --   123 N    1.015   125 C    0.988   127 C    0.951
                           284 H    0.950
   125   6 C    3.901 --   126 O    1.880   124 C    0.988   285 H    0.949
   126   8 O    2.031 --   125 C    1.880
   127   6 C    3.985 --   287 H    0.970   286 H    0.956   124 C    0.951
                           128 C    0.926
   128   6 C    3.941 --   129 O    1.500   130 O    1.482   127 C    0.926
   129   8 O    1.832 --   128 C    1.500   130 O    0.216
   130   8 O    1.852 --   128 C    1.482   129 O    0.216
   131   1 H    0.995 --   288 H    0.871
   132   1 H    1.000 --   289 H    0.963
   133   1 H    0.999 --   290 H    0.920
   134   1 H    0.999 --   291 H    0.916
   135   1 H    1.000 --   292 H    0.979
   136   1 H    1.000 --   293 H    0.949
   137   1 H    0.999 --   294 H    0.975
   138   1 H    1.000 --   295 H    0.979
   139   1 H    1.000 --   296 H    0.989
   140   1 H    1.000 --   297 H    0.983
   141   1 H    1.000 --   298 H    0.997
   142   1 H    1.000 --   299 H    0.995
   143   1 H    1.000 --   300 H    0.989
   144   1 H    1.000 --   301 H    0.985
   145   1 H    1.000 --   302 H    0.983
   146   1 H    1.000 --   303 H    0.979
   147   1 H    1.000 --   304 H    0.985
   148   1 H    1.000 --   305 H    0.990
   149   1 H    1.000 --   306 H    0.994
   150   1 H    0.973 --     1 N    0.947
   151   1 H    0.976 --     1 N    0.960
   152   1 H    0.993 --     2 C    0.949
   153   1 H    0.996 --     3 C    0.949
   154   1 H    0.998 --     5 C    0.971
   155   1 H    0.998 --     5 C    0.968
   156   1 H    0.997 --     6 C    0.969
   157   1 H    0.996 --     6 C    0.965
   158   1 H    0.996 --     8 C    0.974
   159   1 H    0.997 --     8 C    0.980
   160   1 H    0.998 --     8 C    0.979
   161   1 H    0.972 --     9 N    0.956
   162   1 H    0.977 --     9 N    0.954
   163   1 H    0.995 --    10 C    0.956
   164   1 H    0.996 --    11 C    0.950
   165   1 H    0.997 --    13 C    0.973
   166   1 H    0.996 --    13 C    0.967
   167   1 H    0.999 --    14 C    0.958
   168   1 H    0.998 --    15 C    0.985
   169   1 H    0.998 --    15 C    0.978
   170   1 H    0.998 --    15 C    0.985
   171   1 H    0.998 --    16 C    0.985
   172   1 H    0.998 --    16 C    0.983
   173   1 H    0.999 --    16 C    0.982
   174   1 H    0.971 --    17 N    0.956
   175   1 H    0.968 --    17 N    0.942
   176   1 H    0.997 --    18 C    0.958
   177   1 H    0.995 --    21 C    0.958
   178   1 H    0.996 --    21 C    0.957
   179   1 H    0.998 --    23 C    0.972
   180   1 H    0.997 --    24 C    0.966
   181   1 H    0.998 --    25 C    0.971
   182   1 H    0.996 --    26 C    0.969
   183   1 H    0.881 --    28 O    0.861
   184   1 H    0.958 --    29 N    0.922
   185   1 H    0.992 --    30 C    0.954
   186   1 H    0.998 --    33 C    0.966
   187   1 H    0.998 --    34 C    0.986
   188   1 H    0.998 --    34 C    0.985
   189   1 H    0.997 --    34 C    0.984
   190   1 H    0.998 --    35 C    0.982
   191   1 H    0.997 --    35 C    0.983
   192   1 H    0.997 --    35 C    0.974
   193   1 H    0.943 --    36 N    0.862
   194   1 H    0.995 --    37 C    0.938
   195   1 H    0.993 --    40 C    0.960
   196   1 H    0.990 --    40 C    0.953
   197   1 H    0.994 --    43 C    0.908
   198   1 H    0.949 --    46 N    0.902
   199   1 H    0.993 --    47 C    0.944
   200   1 H    0.995 --    50 C    0.971
   201   1 H    0.994 --    50 C    0.970
   202   1 H    0.996 --    51 C    0.970
   203   1 H    0.997 --    51 C    0.979
   204   1 H    0.990 --    52 C    0.948
   205   1 H    0.993 --    52 C    0.964
   206   1 H    0.933 --    55 N    0.865
   207   1 H    0.947 --    55 N    0.923
   208   1 H    0.939 --    56 N    0.920
   209   1 H    0.938 --    56 N    0.919
   210   1 H    0.954 --    57 N    0.861
   211   1 H    0.988 --    58 C    0.930
   212   1 H    0.992 --    61 C    0.964
   213   1 H    0.992 --    61 C    0.950
   214   1 H    0.952 --    65 N    0.921
   215   1 H    0.992 --    66 C    0.954
   216   1 H    0.995 --    67 C    0.949
   217   1 H    0.996 --    69 C    0.974
   218   1 H    0.996 --    69 C    0.971
   219   1 H    0.999 --    70 C    0.972
   220   1 H    0.997 --    71 C    0.986
   221   1 H    0.999 --    71 C    0.981
   222   1 H    0.998 --    71 C    0.986
   223   1 H    0.998 --    72 C    0.982
   224   1 H    0.998 --    72 C    0.986
   225   1 H    0.998 --    72 C    0.986
   226   1 H    0.974 --    73 N    0.960
   227   1 H    0.973 --    73 N    0.958
   228   1 H    0.994 --    74 C    0.913
   229   1 H    0.995 --    75 C    0.948
   230   1 H    0.994 --    77 C    0.951
   231   1 H    0.994 --    77 C    0.968
   232   1 H    0.942 --    80 N    0.884
   233   1 H    0.953 --    80 N    0.926
   234   1 H    0.977 --    81 N    0.963
   235   1 H    0.973 --    81 N    0.941
   236   1 H    0.997 --    82 C    0.960
   237   1 H    0.997 --    83 C    0.950
   238   1 H    0.997 --    85 C    0.967
   239   1 H    0.998 --    86 C    0.961
   240   1 H    0.998 --    86 C    0.978
   241   1 H    0.998 --    87 C    0.986
   242   1 H    0.999 --    87 C    0.984
   243   1 H    0.997 --    87 C    0.981
   244   1 H    0.998 --    88 C    0.986
   245   1 H    0.998 --    88 C    0.977
   246   1 H    0.997 --    88 C    0.979
   247   1 H    0.966 --    89 N    0.952
   248   1 H    0.970 --    89 N    0.954
   249   1 H    0.996 --    90 C    0.960
   250   1 H    0.996 --    93 C    0.974
   251   1 H    0.993 --    93 C    0.964
   252   1 H    0.960 --    97 N    0.931
   253   1 H    0.986 --    98 C    0.914
   254   1 H    0.993 --    99 C    0.947
   255   1 H    0.992 --   101 C    0.963
   256   1 H    0.996 --   101 C    0.972
   257   1 H    0.999 --   103 C    0.972
   258   1 H    0.997 --   104 C    0.969
   259   1 H    0.998 --   105 C    0.973
   260   1 H    0.998 --   106 C    0.971
   261   1 H    0.998 --   107 C    0.972
   262   1 H    0.972 --   108 N    0.950
   263   1 H    0.978 --   108 N    0.959
   264   1 H    0.995 --   109 C    0.947
   265   1 H    0.996 --   112 C    0.970
   266   1 H    0.999 --   112 C    0.975
   267   1 H    0.999 --   113 C    0.973
   268   1 H    0.998 --   114 C    0.986
   269   1 H    0.999 --   114 C    0.984
   270   1 H    0.998 --   114 C    0.986
   271   1 H    0.998 --   115 C    0.987
   272   1 H    0.998 --   115 C    0.986
   273   1 H    0.998 --   115 C    0.980
   274   1 H    0.951 --   116 N    0.907
   275   1 H    0.991 --   117 C    0.937
   276   1 H    0.988 --   118 C    0.844
   277   1 H    0.994 --   120 C    0.959
   278   1 H    0.910 --   121 O    0.871
   279   1 H    0.997 --   122 C    0.977
   280   1 H    0.998 --   122 C    0.978
   281   1 H    0.996 --   122 C    0.981
   282   1 H    0.976 --   123 N    0.961
   283   1 H    0.976 --   123 N    0.962
   284   1 H    0.994 --   124 C    0.950
   285   1 H    0.996 --   125 C    0.949
   286   1 H    0.999 --   127 C    0.956
   287   1 H    0.998 --   127 C    0.970
   288   1 H    0.995 --   131 H    0.871
   289   1 H    1.000 --   132 H    0.963
   290   1 H    0.999 --   133 H    0.920
   291   1 H    1.000 --   134 H    0.916
   292   1 H    1.000 --   135 H    0.979
   293   1 H    1.000 --   136 H    0.949
   294   1 H    1.000 --   137 H    0.975
   295   1 H    1.000 --   138 H    0.979
   296   1 H    1.000 --   139 H    0.989
   297   1 H    1.000 --   140 H    0.983
   298   1 H    1.000 --   141 H    0.997
   299   1 H    1.000 --   142 H    0.995
   300   1 H    1.000 --   143 H    0.989
   301   1 H    1.000 --   144 H    0.985
   302   1 H    1.000 --   145 H    0.983
   303   1 H    1.000 --   146 H    0.979
   304   1 H    1.000 --   147 H    0.985
   305   1 H    1.000 --   148 H    0.990
   306   1 H    1.000 --   149 H    0.994
   307   1 H    0.954 --    53 N    0.922
   308   1 H    0.956 --    42 N    0.917
 ---------------------------------------------------------------------------

Topologies differ in total number of bonds
Writing topology from bond orders to xtbtopo.mol

molecular dipole:
                 x           y           z       tot (Debye)
 q only:      -12.457    -102.652     -12.242
   full:      -10.491    -102.822     -12.095     264.497
molecular quadrupole (traceless):
                xx          xy          yy          xz          yz          zz
 q only:     5189.057   -1673.111  -10178.810    -292.915   -2016.705    4989.752
  q+dip:     5225.582   -1360.741  -10266.873    -207.367   -2002.907    5041.291
   full:     5220.344   -1359.827  -10263.118    -210.179   -2003.641    5042.774


           -------------------------------------------------
          | TOTAL ENERGY             -431.496068828838 Eh   |
          | GRADIENT NORM               1.280067931488 Eh/α |
          | HOMO-LUMO GAP               0.042488456249 eV   |
           -------------------------------------------------
########################################################################
[WARNING] Runtime exception occurred
-2- restart_readRestart: Dimension missmatch in restart file.
-1- restart_readRestart: Number of electron missmatch in restart file.
########################################################################

------------------------------------------------------------------------
 * finished run on 2025/05/01 at 18:01:50.185     
------------------------------------------------------------------------
 total:
 * wall-time:     0 d,  0 h,  0 min,  2.345 sec
 *  cpu-time:     0 d,  0 h,  1 min, 12.651 sec
 * ratio c/w:    30.986 speedup
 SCF:
 * wall-time:     0 d,  0 h,  0 min,  2.306 sec
 *  cpu-time:     0 d,  0 h,  1 min, 11.591 sec
 * ratio c/w:    31.040 speedup

