      -----------------------------------------------------------      
     |                   =====================                   |     
     |                           x T B                           |     
     |                   =====================                   |     
     |                         S. Grimme                         |     
     |          Mulliken Center for Theoretical Chemistry        |     
     |                    University of Bonn                     |     
      -----------------------------------------------------------      

   * xtb version 6.7.1 (edcfbbe) compiled by 'conda@afd1a870197c' on 2025-04-11

   xtb is free software: you can redistribute it and/or modify it under
   the terms of the GNU Lesser General Public License as published by
   the Free Software Foundation, either version 3 of the License, or
   (at your option) any later version.
   
   xtb is distributed in the hope that it will be useful,
   but WITHOUT ANY WARRANTY; without even the implied warranty of
   MERCHANTABILITY or FITNESS FOR A PARTICULAR PURPOSE.  See the
   GNU Lesser General Public License for more details.
   
   Cite this work as:
   * C. Bannwarth, E. Caldeweyher, S. Ehlert, A. Hansen, P. Pracht,
     J. Seibert, S. Spicher, S. Grimme, WIREs Comput. Mol. Sci., 2020, 11,
     e01493. DOI: 10.1002/wcms.1493
   
   for GFN2-xTB:
   * C. Bannwarth, S. Ehlert and S. Grimme., J. Chem. Theory Comput., 2019,
     15, 1652-1671. DOI: 10.1021/acs.jctc.8b01176
   for GFN1-xTB:
   * S. Grimme, C. Bannwarth, P. Shushkov, J. Chem. Theory Comput., 2017,
     13, 1989-2009. DOI: 10.1021/acs.jctc.7b00118
   for GFN0-xTB:
   * P. Pracht, E. Caldeweyher, S. Ehlert, S. Grimme, ChemRxiv, 2019, preprint.
     DOI: 10.26434/chemrxiv.8326202.v1
   for GFN-FF:
   * S. Spicher and S. Grimme, Angew. Chem. Int. Ed., 2020, 59, 15665-15673.
     DOI: 10.1002/anie.202004239
   
   for ALPB and GBSA implicit solvation:
   * S. Ehlert, M. Stahn, S. Spicher, S. Grimme, J. Chem. Theory Comput.,
     2021, 17, 4250-4261. DOI: 10.1021/acs.jctc.1c00471
   
   for ddCOSMO and CPCM-X implicit solvation:
   * M. Stahn, S. Ehlert, S. Grimme, J. Phys. Chem. A,
     2023, XX, XXXX-XXXX. DOI: 10.1021/acs.jpca.3c04382
   
   for DFT-D4:
   * E. Caldeweyher, C. Bannwarth and S. Grimme, J. Chem. Phys., 2017,
     147, 034112. DOI: 10.1063/1.4993215
   * E. Caldeweyher, S. Ehlert, A. Hansen, H. Neugebauer, S. Spicher,
     C. Bannwarth and S. Grimme, J. Chem. Phys., 2019, 150, 154122.
     DOI: 10.1063/1.5090222
   * E. Caldeweyher, J.-M. Mewes, S. Ehlert and S. Grimme, Phys. Chem. Chem. Phys.
     2020, 22, 8499-8512. DOI: 10.1039/D0CP00502A
   
   for sTDA-xTB:
   * S. Grimme and C. Bannwarth, J. Chem. Phys., 2016, 145, 054103.
     DOI: 10.1063/1.4959605
   
   in the mass-spec context:
   * V. Asgeirsson, C. Bauer and S. Grimme, Chem. Sci., 2017, 8, 4879.
     DOI: 10.1039/c7sc00601b
   * J. Koopman and S. Grimme, ACS Omega 2019, 4, 12, 15120-15133.
     DOI: 10.1021/acsomega.9b02011
   
   for metadynamics refer to:
   * S. Grimme, J. Chem. Theory Comput., 2019, 155, 2847-2862
     DOI: 10.1021/acs.jctc.9b00143
   
   for SPH calculations refer to:
   * S. Spicher and S. Grimme, J. Chem. Theory Comput., 2021, 17, 1701-1714
     DOI: 10.1021/acs.jctc.0c01306
   
   for ONIOM refer to:
   * C. Plett, A. Katbashev, S. Ehlert, S. Grimme, M. Bursch,
     Phys. Chem. Chem. Phys., 2023, 25, 17860-17868. DOI: 10.1039/D3CP02178E
   
   for DIPRO refer to:
   * J. Kohn, N. Gildemeister, S. Grimme, D. Fazzi, A. Hansen,
     J. Chem. Phys., 2023, just accepted.
   
   for PTB refer to:
   * S. Grimme, M. Mueller, A. Hansen, J. Chem. Phys., 2023, 158, 124111.
     DOI: 10.1063/5.0137838
   
   with help from (in alphabetical order)
   P. Atkinson, C. Bannwarth, F. Bohle, G. Brandenburg, E. Caldeweyher
   M. Checinski, S. Dohm, S. Ehlert, S. Ehrlich, I. Gerasimov, C. Hölzer
   A. Katbashev, J. Kohn, J. Koopman, C. Lavigne, S. Lehtola, F. März, M. Müller,
   F. Musil, H. Neugebauer, J. Pisarek, C. Plett, P. Pracht, F. Pultar,
   J. Seibert, P. Shushkov, S. Spicher, M. Stahn, M. Steiner, T. Strunk,
   J. Stückrath, T. Rose, and J. Unsleber
   
 * started run on 2025/05/05 at 16:39:36.811     
   ID    Z sym.   atoms
    1    7 N      1, 5, 13, 19, 28, 36, 44, 52, 60, 66, 73, 79, 82, 83, 91,
                  92, 99, 111, 118
    2    6 C      2, 3, 6, 7, 9-12, 14-18, 20, 21, 23-25, 29, 30, 32, 33, 35,
                  37, 38, 40-43, 45, 46, 48-51, 53, 54, 56-59, 61-65, 67, 68,
                  70-72, 74, 75, 77, 78, 80, 81, 84, 85, 87-90, 93, 94, 96,
                  98, 100, 101, 103-109, 112, 113, 115-117, 119, 120, 122
    3    8 O      4, 8, 22, 26, 27, 31, 39, 47, 55, 69, 76, 86, 95, 97, 102,
                  110, 114, 121
    4   16 S      34
    5    1 H      123-310

           -------------------------------------------------
          |                Calculation Setup                |
           -------------------------------------------------

          program call               : xtb /tmp/tmp5ty08pgo/HID/input.xyz --alpb ether --chrg 1 --input /tmp/tmp5ty08pgo/HID/constraints.inp --gfn 2
          hostname                   : fedora
          coordinate file            : /tmp/tmp5ty08pgo/HID/input.xyz
          omp threads                :                    32


molecular fragmentation (1/2 indicates fragments):
111111111111111111111111111111111111111111122222222222222222222222222222
222222222222222222222222222222222222222222222222222222222222222222222222
222222222211111111111111111111111111111111111111112222222222222222222222
222222222222222222222222222222222222222222222222222222222222222222222222
2222222222222222222222
# atoms in fragment 1/2:    83   227
 fragment masses (1/2) :      616.73     1167.85
CMA distance (Bohr)    :  12.467
constraining FC (au)   :  0.0500

           -------------------------------------------------
          |                 G F N 2 - x T B                 |
           -------------------------------------------------

        Reference                      10.1021/acs.jctc.8b01176
      * Hamiltonian:
        H0-scaling (s, p, d)           1.850000    2.230000    2.230000
        zeta-weighting                 0.500000
      * Dispersion:
        s8                             2.700000
        a1                             0.520000
        a2                             5.000000
        s9                             5.000000
      * Repulsion:
        kExp                           1.500000    1.000000
        rExp                           1.000000
      * Coulomb:
        alpha                          2.000000
        third order                    shell-resolved
        anisotropic                    true
        a3                             3.000000
        a5                             4.000000
        cn-shift                       1.200000
        cn-exp                         4.000000
        max-rad                        5.000000

      * Solvation model:               ALPB
        Solvent                        ether
        Parameter file                 internal GFN2-xTB/ALPB
        Dielectric constant                4.3300E+00
        Reference state                gsolv [1 M gas/solution]
        Free energy shift                  4.9534E-03 Eh       3.1083E+00 kcal/mol
        Temperature                        2.9815E+02 K
        Density                            7.1300E-01 kg/L
        Solvent mass                       7.4120E+01 g/mol
        Interaction kernel             P16
        Born radius scaling (c1)           1.5847E+00
        Born radii integrator          GBOBC
        Born offset                        0.0000E+00 a0       0.0000E+00 AA
        H-bond correction              true
        Ion screening                  false
        Surface tension                    1.0000E-05 Eh       1.5569E+01 dyn/cm
        Grid points                               230 per atom

          ...................................................
          :                      SETUP                      :
          :.................................................:
          :  # basis functions                 682          :
          :  # atomic orbitals                 681          :
          :  # shells                          433          :
          :  # electrons                       732          :
          :  max. iterations                   250          :
          :  Hamiltonian                  GFN2-xTB          :
          :  restarted?                      false          :
          :  GBSA solvation                   true          :
          :  PC potential                    false          :
          :  electronic temp.          300.0000000     K    :
          :  accuracy                    1.0000000          :
          :  -> integral cutoff          0.2500000E+02      :
          :  -> integral neglect         0.1000000E-07      :
          :  -> SCF convergence          0.1000000E-05 Eh   :
          :  -> wf. convergence          0.1000000E-03 e    :
          :  Broyden damping             0.4000000          :
          :  net charge                          1          :
          :  unpaired electrons                  0          :
          ...................................................

 iter      E             dE          RMSdq      gap      omega  full diag
   1   -410.7570215 -0.410757E+03  0.419E+00    0.17       0.0  T
   2   -408.3862485  0.237077E+01  0.339E+00    0.12       1.0  T
   3   -409.6132308 -0.122698E+01  0.293E+00    0.32       1.0  T
   4   -412.1234744 -0.251024E+01  0.191E+00    0.03       1.0  T
   5   -411.7780361  0.345438E+00  0.164E+00    0.20       1.0  T
   6   -411.6002709  0.177765E+00  0.157E+00    0.21       1.0  T
   7   -411.6719337 -0.716628E-01  0.169E+00    0.29       1.0  T
   8   -411.9355979 -0.263664E+00  0.138E+00    0.02       1.0  T
   9   -412.4562854 -0.520687E+00  0.922E-01    0.07       1.0  T
  10   -412.5819078 -0.125622E+00  0.751E-01    0.04       1.0  T
  11   -412.3400193  0.241888E+00  0.965E-01    0.15       1.0  T
  12   -412.0997179  0.240301E+00  0.105E+00    0.05       1.0  T
  13   -412.5785610 -0.478843E+00  0.708E-01    0.01       1.0  T
  14   -412.7383741 -0.159813E+00  0.429E-01    0.03       1.0  T
  15   -412.7653616 -0.269875E-01  0.343E-01    0.02       1.0  T
  16   -412.5608828  0.204479E+00  0.675E-01    0.12       1.0  T
  17   -412.3321832  0.228700E+00  0.102E+00    0.00       1.0  T
  18   -412.6785469 -0.346364E+00  0.568E-01    0.02       1.0  T
  19   -412.6073231  0.712238E-01  0.586E-01    0.11       1.0  T
  20   -412.7156575 -0.108334E+00  0.389E-01    0.03       1.0  T
  21   -412.7127780  0.287945E-02  0.383E-01    0.05       1.0  T
  22   -412.7132543 -0.476281E-03  0.409E-01    0.03       1.0  T
  23   -412.7530790 -0.398247E-01  0.332E-01    0.02       1.0  T
  24   -412.7072102  0.458687E-01  0.389E-01    0.02       1.0  T
  25   -412.7809339 -0.737237E-01  0.208E-01    0.01       1.0  T
  26   -412.7960114 -0.150774E-01  0.116E-01    0.01       1.0  T
  27   -412.7952817  0.729623E-03  0.122E-01    0.00       1.0  T
  28   -412.8017656 -0.648385E-02  0.515E-02    0.01       1.0  T
  29   -412.8020206 -0.255040E-03  0.444E-02    0.01       1.0  T
  30   -412.8018979  0.122759E-03  0.463E-02    0.01       1.0  T
  31   -412.8025523 -0.654474E-03  0.319E-02    0.00       1.0  T
  32   -412.8025902 -0.378875E-04  0.299E-02    0.01       1.0  T
  33   -412.8026514 -0.611237E-04  0.277E-02    0.01       1.0  T
  34   -412.8026102  0.412032E-04  0.278E-02    0.01       1.0  T
  35   -412.8027931 -0.182980E-03  0.212E-02    0.01       1.0  T
  36   -412.8028548 -0.616414E-04  0.168E-02    0.01       1.0  T
  37   -412.8029429 -0.881252E-04  0.917E-03    0.01       1.0  T
  38   -412.8029839 -0.409911E-04  0.407E-03    0.01       1.4  T
  39   -412.8029933 -0.939887E-05  0.217E-03    0.01       2.6  T
  40   -412.8029947 -0.143765E-05  0.123E-03    0.01       4.6  T
  41   -412.8029950 -0.316829E-06  0.827E-04    0.01       6.9  T
  42   -412.8029952 -0.190737E-06  0.547E-04    0.01      10.4  T

   *** convergence criteria satisfied after 42 iterations ***

         #    Occupation            Energy/Eh            Energy/eV
      -------------------------------------------------------------
         1        2.0000           -0.7709898             -20.9797
       ...           ...                  ...                  ...
       360        1.9618           -0.3846061             -10.4657
       361        1.9527           -0.3843995             -10.4600
       362        1.9438           -0.3842321             -10.4555
       363        1.9126           -0.3837966             -10.4436
       364        1.8488           -0.3832436             -10.4286
       365        1.5650           -0.3820814             -10.3970
       366        1.0493           -0.3809587             -10.3664 (HOMO)
       367        0.9210           -0.3807145             -10.3598 (LUMO)
       368        0.8534           -0.3805844             -10.3562
       369                         -0.3266669              -8.8891
       370                         -0.3133829              -8.5276
       371                         -0.3017648              -8.2114
       ...                                ...                  ...
       681                          1.8112686              49.2871
      -------------------------------------------------------------
                  HL-Gap            0.0002442 Eh            0.0066 eV
             Fermi-level           -0.3808650 Eh          -10.3639 eV

 SCC (total)                   0 d,  0 h,  0 min,  2.878 sec
 SCC setup                      ...        0 min,  0.006 sec (  0.202%)
 Dispersion                     ...        0 min,  0.016 sec (  0.564%)
 classical contributions        ...        0 min,  0.001 sec (  0.029%)
 integral evaluation            ...        0 min,  0.037 sec (  1.293%)
 iterations                     ...        0 min,  2.695 sec ( 93.642%)
 molecular gradient             ...        0 min,  0.119 sec (  4.149%)
 printout                       ...        0 min,  0.003 sec (  0.120%)

         :::::::::::::::::::::::::::::::::::::::::::::::::::::
         ::                     SUMMARY                     ::
         :::::::::::::::::::::::::::::::::::::::::::::::::::::
         :: total energy            -404.571986442308 Eh    ::
         :: total w/o Gsasa/hb      -404.468912710191 Eh    ::
         :: gradient norm              1.659791192430 Eh/a0 ::
         :: HOMO-LUMO gap              0.006644759780 eV    ::
         ::.................................................::
         :: SCC energy              -412.765401473063 Eh    ::
         :: -> isotropic ES            0.870555038757 Eh    ::
         :: -> anisotropic ES          0.132730215989 Eh    ::
         :: -> anisotropic XC          0.335564265631 Eh    ::
         :: -> dispersion             -0.371666480209 Eh    ::
         :: -> Gsolv                  -0.234428467839 Eh    ::
         ::    -> Gelec               -0.131354735722 Eh    ::
         ::    -> Gsasa               -0.092379512453 Eh    ::
         ::    -> Ghb                 -0.015647657242 Eh    ::
         ::    -> Gshift               0.004953437577 Eh    ::
         :: repulsion energy           8.193415030755 Eh    ::
         :: add. restraining           0.000000000000 Eh    ::
         :: total charge               1.000000001877 e     ::
         :::::::::::::::::::::::::::::::::::::::::::::::::::::

           -------------------------------------------------
          |                Property Printout                |
           -------------------------------------------------

    * Orbital Energies and Occupations

         #    Occupation            Energy/Eh            Energy/eV
      -------------------------------------------------------------
         1        2.0000           -0.7709898             -20.9797
       ...           ...                  ...                  ...
       354        2.0000           -0.4004466             -10.8967
       355        2.0000           -0.3987652             -10.8510
       356        2.0000           -0.3978505             -10.8261
       357        2.0000           -0.3971699             -10.8075
       358        1.9989           -0.3879713             -10.5572
       359        1.9928           -0.3862082             -10.5093
       360        1.9618           -0.3846061             -10.4657
       361        1.9527           -0.3843995             -10.4600
       362        1.9438           -0.3842321             -10.4555
       363        1.9126           -0.3837966             -10.4436
       364        1.8488           -0.3832436             -10.4286
       365        1.5650           -0.3820814             -10.3970
       366        1.0493           -0.3809587             -10.3664 (HOMO)
       367        0.9210           -0.3807145             -10.3598 (LUMO)
       368        0.8534           -0.3805844             -10.3562
       369                         -0.3266669              -8.8891
       370                         -0.3133829              -8.5276
       371                         -0.3017648              -8.2114
       372                         -0.2920325              -7.9466
       373                         -0.2613319              -7.1112
       374                         -0.2599208              -7.0728
       375                         -0.2560144              -6.9665
       376                         -0.2427123              -6.6045
       377                         -0.2415704              -6.5735
       ...                                ...                  ...
       681                          1.8112686              49.2871
      -------------------------------------------------------------
                  HL-Gap            0.0002442 Eh            0.0066 eV
             Fermi-level           -0.3808650 Eh          -10.3639 eV

     #   Z          covCN         q      C6AA      α(0)
     1   7 N        2.627    -0.352    29.080     8.009
     2   6 C        3.738    -0.023    21.069     6.550
     3   6 C        2.755     0.271    22.416     7.753
     4   8 O        0.860    -0.496    23.702     6.527
     5   7 N        2.693    -0.151    24.277     7.318
     6   6 C        3.808     0.030    20.071     6.377
     7   6 C        2.758     0.278    22.305     7.734
     8   8 O        0.858    -0.481    23.362     6.480
     9   6 C        3.812    -0.079    21.998     6.676
    10   6 C        3.051     0.008    27.783     8.645
    11   6 C        3.033     0.022    27.481     8.599
    12   6 C        3.110    -0.025    28.473     8.742
    13   7 N        1.917    -0.269    27.831     7.822
    14   6 C        3.086     0.067    26.401     8.423
    15   6 C        2.911    -0.030    28.753     8.793
    16   6 C        2.909    -0.033    28.818     8.803
    17   6 C        2.915    -0.043    29.077     8.842
    18   6 C        2.926    -0.035    28.867     8.811
    19   7 N        2.694    -0.160    24.467     7.346
    20   6 C        3.795     0.020    20.237     6.406
    21   6 C        2.755     0.274    22.372     7.745
    22   8 O        0.859    -0.477    23.271     6.468
    23   6 C        3.810    -0.062    21.678     6.628
    24   6 C        3.808    -0.077    21.969     6.672
    25   6 C        2.689     0.380    20.570     7.423
    26   8 O        0.856    -0.526    24.362     6.618
    27   8 O        0.857    -0.522    24.271     6.605
    28   7 N        2.685    -0.157    24.399     7.336
    29   6 C        3.794     0.013    20.364     6.426
    30   6 C        2.757     0.271    22.413     7.753
    31   8 O        0.859    -0.488    23.519     6.502
    32   6 C        3.822    -0.076    21.938     6.665
    33   6 C        3.796    -0.030    21.120     6.544
    34  16 S        1.959    -0.126   146.319    20.359
    35   6 C        3.751    -0.074    21.969     6.684
    36   7 N        2.694    -0.167    24.623     7.370
    37   6 C        3.792     0.026    20.142     6.391
    38   6 C        2.774     0.195    23.846     7.998
    39   8 O        0.856    -0.356    20.831     6.119
    40   6 C        3.812    -0.075    21.920     6.664
    41   6 C        3.849    -0.020    20.892     6.501
    42   6 C        3.762    -0.113    22.703     6.792
    43   6 C        3.758    -0.122    22.880     6.820
    44   7 N        2.628    -0.358    29.239     8.031
    45   6 C        3.786     0.024    20.182     6.399
    46   6 C        2.765     0.195    23.834     7.995
    47   8 O        0.856    -0.369    21.076     6.155
    48   6 C        3.858    -0.020    20.890     6.500
    49   6 C        3.810    -0.060    21.639     6.622
    50   6 C        3.758    -0.114    22.729     6.797
    51   6 C        3.760    -0.106    22.567     6.772
    52   7 N        2.640    -0.329    28.455     7.922
    53   6 C        3.785     0.031    20.066     6.380
    54   6 C        2.764     0.275    22.353     7.743
    55   8 O        0.860    -0.473    23.191     6.457
    56   6 C        3.812    -0.067    21.777     6.642
    57   6 C        3.046     0.001    27.952     8.671
    58   6 C        3.022     0.021    27.506     8.603
    59   6 C        3.101    -0.031    28.650     8.771
    60   7 N        1.909    -0.288    28.323     7.890
    61   6 C        3.075     0.066    26.443     8.431
    62   6 C        2.910    -0.031    28.785     8.798
    63   6 C        2.909    -0.031    28.770     8.795
    64   6 C        2.915    -0.043    29.077     8.842
    65   6 C        2.926    -0.036    28.902     8.816
    66   7 N        2.696    -0.157    24.404     7.337
    67   6 C        3.804     0.013    20.359     6.424
    68   6 C        2.776     0.269    22.462     7.762
    69   8 O        0.859    -0.511    24.033     6.573
    70   6 C        3.860    -0.016    20.814     6.488
    71   6 C        3.760    -0.124    22.925     6.826
    72   6 C        3.765    -0.126    22.953     6.829
    73   7 N        2.687    -0.164    24.540     7.357
    74   6 C        3.807     0.020    20.232     6.403
    75   6 C        2.754     0.271    22.427     7.755
    76   8 O        0.859    -0.485    23.463     6.494
    77   6 C        3.810    -0.081    22.035     6.682
    78   6 C        3.087     0.031    27.207     8.550
    79   7 N        2.840    -0.159    24.433     7.341
    80   6 C        3.048     0.010    27.750     8.640
    81   6 C        2.102     0.040    29.850     8.828
    82   7 N        1.976    -0.230    26.844     7.684
    83   7 N        2.692    -0.170    24.672     7.377
    84   6 C        3.795     0.019    20.263     6.410
    85   6 C        2.755     0.267    22.497     7.767
    86   8 O        0.858    -0.484    23.441     6.491
    87   6 C        3.810    -0.070    21.823     6.650
    88   6 C        3.801    -0.086    22.138     6.699
    89   6 C        3.795    -0.093    22.271     6.720
    90   6 C        3.722    -0.046    21.514     6.624
    91   7 N        3.479    -0.169    24.652     7.374
    92   7 N        2.689    -0.155    24.359     7.330
    93   6 C        3.795     0.014    20.343     6.423
    94   6 C        2.769     0.202    23.710     7.975
    95   8 O        0.856    -0.344    20.602     6.085
    96   6 C        3.735     0.111    18.846     6.196
    97   8 O        1.654    -0.473    22.330     6.379
    98   6 C        3.761    -0.143    23.306     6.882
    99   7 N        2.637    -0.344    28.867     7.980
   100   6 C        3.793     0.028    20.116     6.387
   101   6 C        2.768     0.269    22.452     7.760
   102   8 O        0.858    -0.500    23.784     6.539
   103   6 C        3.814    -0.079    22.001     6.676
   104   6 C        2.970    -0.011    28.294     8.725
   105   6 C        2.935    -0.049    29.222     8.866
   106   6 C        2.937    -0.045    29.128     8.851
   107   6 C        2.925    -0.080    30.012     8.984
   108   6 C        2.924    -0.059    29.467     8.902
   109   6 C        2.865     0.145    24.845     8.170
   110   8 O        1.663    -0.468    22.214     6.363
   111   7 N        2.699    -0.164    24.544     7.358
   112   6 C        3.806     0.016    20.304     6.415
   113   6 C        2.768     0.270    22.444     7.759
   114   8 O        0.859    -0.501    23.816     6.543
   115   6 C        3.855    -0.017    20.835     6.492
   116   6 C        3.762    -0.119    22.834     6.812
   117   6 C        3.756    -0.121    22.877     6.820
   118   7 N        2.691    -0.159    24.434     7.341
   119   6 C        3.797     0.034    20.010     6.369
   120   6 C        2.884     0.121    25.342     8.253
   121   8 O        0.856    -0.379    21.270     6.183
   122   6 C        3.763    -0.115    22.738     6.797
   123   1 H        0.980    -0.002     3.082     2.743
   124   1 H        0.980     0.008     2.918     2.669
   125   1 H        0.980    -0.014     3.311     2.844
   126   1 H        0.980     0.015     2.804     2.616
   127   1 H        0.980     0.022     2.689     2.562
   128   1 H        0.980    -0.023     3.474     2.912
   129   1 H        0.980     0.019     2.741     2.587
   130   1 H        0.980    -0.012     3.265     2.824
   131   1 H        0.980    -0.017     3.357     2.863
   132   1 H        0.980     0.005     2.959     2.688
   133   1 H        0.980    -0.000     3.052     2.730
   134   1 H        0.980    -0.003     3.092     2.748
   135   1 H        0.980     0.014     2.820     2.624
   136   1 H        0.980     0.017     2.776     2.603
   137   1 H        0.980    -0.047     4.007     3.128
   138   1 H        0.980    -0.026     3.536     2.938
   139   1 H        0.980     0.003     2.994     2.704
   140   1 H        0.980    -0.021     3.433     2.895
   141   1 H        0.980     0.007     2.932     2.675
   142   1 H        0.980    -0.001     3.066     2.736
   143   1 H        0.980    -0.004     3.121     2.761
   144   1 H        0.980    -0.004     3.119     2.760
   145   1 H        0.980    -0.001     3.068     2.737
   146   1 H        0.980     0.005     2.957     2.687
   147   1 H        0.980     0.004     2.978     2.697
   148   1 H        0.980    -0.002     3.076     2.741
   149   1 H        0.980    -0.009     3.203     2.796
   150   1 H        0.980     0.015     2.803     2.616
   151   1 H        0.980    -0.011     3.240     2.813
   152   1 H        0.980    -0.020     3.415     2.888
   153   1 H        0.980    -0.013     3.276     2.828
   154   1 H        0.980     0.029     2.591     2.515
   155   1 H        0.860     0.180     1.217     1.728
   156   1 H        0.860     0.161     1.327     1.805
   157   1 H        0.927     0.049     2.338     2.391
   158   1 H        0.927     0.080     1.984     2.203
   159   1 H        0.861     0.205     1.082     1.629
   160   1 H        0.927     0.081     1.972     2.196
   161   1 H        0.927     0.089     1.893     2.152
   162   1 H        0.927     0.074     2.044     2.236
   163   1 H        0.929     0.044     2.396     2.420
   164   1 H        0.929     0.053     2.288     2.365
   165   1 H        0.929     0.066     2.132     2.283
   166   1 H        0.929     0.053     2.284     2.363
   167   1 H        0.929     0.060     2.202     2.321
   168   1 H        0.861     0.228     0.975     1.547
   169   1 H        0.927     0.081     1.966     2.193
   170   1 H        0.927     0.061     2.188     2.313
   171   1 H        0.927     0.073     2.048     2.238
   172   1 H        0.927     0.078     1.999     2.211
   173   1 H        0.927     0.071     2.075     2.253
   174   1 H        0.861     0.205     1.079     1.627
   175   1 H        0.927     0.099     1.797     2.096
   176   1 H        0.927     0.070     2.088     2.260
   177   1 H        0.927     0.070     2.086     2.259
   178   1 H        0.927     0.080     1.982     2.202
   179   1 H        0.927     0.073     2.051     2.239
   180   1 H        0.927     0.077     2.014     2.219
   181   1 H        0.927     0.069     2.093     2.262
   182   1 H        0.927     0.066     2.128     2.281
   183   1 H        0.861     0.233     0.951     1.528
   184   1 H        0.927     0.099     1.795     2.095
   185   1 H        0.929     0.079     1.989     2.205
   186   1 H        0.927     0.064     2.156     2.296
   187   1 H        0.927     0.063     2.161     2.299
   188   1 H        0.927     0.048     2.347     2.396
   189   1 H        0.927     0.042     2.427     2.436
   190   1 H        0.927     0.038     2.477     2.461
   191   1 H        0.927     0.043     2.405     2.425
   192   1 H        0.926     0.043     2.415     2.430
   193   1 H        0.927     0.047     2.359     2.402
   194   1 H        0.927     0.041     2.439     2.442
   195   1 H        0.860     0.171     1.266     1.762
   196   1 H        0.860     0.159     1.339     1.813
   197   1 H        0.927     0.082     1.955     2.187
   198   1 H        0.929     0.066     2.126     2.280
   199   1 H        0.927     0.039     2.459     2.452
   200   1 H        0.927     0.029     2.594     2.518
   201   1 H        0.927     0.041     2.439     2.442
   202   1 H        0.927     0.042     2.420     2.433
   203   1 H        0.927     0.051     2.302     2.373
   204   1 H        0.927     0.048     2.345     2.395
   205   1 H        0.927     0.038     2.475     2.460
   206   1 H        0.927     0.038     2.479     2.462
   207   1 H        0.927     0.039     2.459     2.452
   208   1 H        0.860     0.183     1.199     1.716
   209   1 H        0.860     0.211     1.052     1.607
   210   1 H        0.927     0.053     2.283     2.363
   211   1 H        0.927     0.067     2.120     2.277
   212   1 H        0.926     0.063     2.163     2.300
   213   1 H        0.929     0.037     2.483     2.464
   214   1 H        0.929     0.049     2.334     2.389
   215   1 H        0.929     0.067     2.114     2.273
   216   1 H        0.929     0.054     2.270     2.356
   217   1 H        0.929     0.055     2.252     2.347
   218   1 H        0.861     0.204     1.086     1.632
   219   1 H        0.927     0.093     1.851     2.128
   220   1 H        0.927     0.045     2.383     2.414
   221   1 H        0.927     0.049     2.330     2.387
   222   1 H        0.927     0.041     2.439     2.442
   223   1 H        0.927     0.054     2.273     2.358
   224   1 H        0.927     0.049     2.333     2.388
   225   1 H        0.926     0.053     2.278     2.360
   226   1 H        0.927     0.050     2.318     2.381
   227   1 H        0.861     0.235     0.942     1.520
   228   1 H        0.927     0.096     1.822     2.111
   229   1 H        0.927     0.089     1.888     2.149
   230   1 H        0.926     0.088     1.901     2.156
   231   1 H        0.929     0.065     2.140     2.288
   232   1 H        0.861     0.226     0.984     1.554
   233   1 H        0.926     0.073     2.052     2.240
   234   1 H        0.926     0.064     2.152     2.294
   235   1 H        0.927     0.067     2.119     2.276
   236   1 H        0.927     0.055     2.262     2.352
   237   1 H        0.927     0.064     2.151     2.293
   238   1 H        0.927     0.094     1.842     2.122
   239   1 H        0.926     0.067     2.124     2.279
   240   1 H        0.927     0.116     1.643     2.005
   241   1 H        0.927     0.119     1.625     1.993
   242   1 H        0.861     0.214     1.036     1.595
   243   1 H        0.927     0.099     1.798     2.097
   244   1 H        0.929     0.085     1.927     2.170
   245   1 H        0.926     0.072     2.066     2.248
   246   1 H        0.804     0.328     0.642     1.259
   247   1 H        0.927     0.061     2.192     2.315
   248   1 H        0.926     0.064     2.152     2.294
   249   1 H        0.927     0.073     2.049     2.238
   250   1 H        0.860     0.170     1.272     1.767
   251   1 H        0.860     0.177     1.234     1.740
   252   1 H        0.927     0.059     2.216     2.328
   253   1 H        0.927     0.052     2.291     2.367
   254   1 H        0.927     0.058     2.218     2.329
   255   1 H        0.929     0.054     2.270     2.356
   256   1 H        0.929     0.051     2.309     2.376
   257   1 H        0.929     0.046     2.376     2.410
   258   1 H        0.929     0.060     2.204     2.321
   259   1 H        1.756     0.370     0.531     1.138
   260   1 H        0.861     0.222     1.000     1.567
   261   1 H        0.927     0.076     2.020     2.223
   262   1 H        0.927     0.052     2.294     2.368
   263   1 H        0.927     0.046     2.366     2.406
   264   1 H        0.927     0.038     2.473     2.459
   265   1 H        0.927     0.054     2.272     2.357
   266   1 H        0.927     0.049     2.334     2.389
   267   1 H        0.927     0.050     2.315     2.379
   268   1 H        0.927     0.048     2.348     2.396
   269   1 H        0.861     0.214     1.038     1.596
   270   1 H        0.927     0.107     1.724     2.053
   271   1 H        0.945     0.131     1.524     1.930
   272   1 H        0.926     0.060     2.201     2.320
   273   1 H        0.927     0.077     2.013     2.218
   274   1 H        0.927     0.059     2.207     2.323
   275   1 H        0.980     0.002     3.019     2.715
   276   1 H        0.980    -0.000     3.050     2.729
   277   1 H        0.980     0.013     2.826     2.627
   278   1 H        0.980    -0.014     3.304     2.840
   279   1 H        0.980    -0.021     3.437     2.897
   280   1 H        0.980     0.022     2.692     2.564
   281   1 H        0.980    -0.012     3.271     2.826
   282   1 H        0.980     0.006     2.949     2.684
   283   1 H        0.980     0.019     2.747     2.590
   284   1 H        0.980    -0.005     3.139     2.769
   285   1 H        0.980     0.000     3.042     2.726
   286   1 H        0.980     0.003     2.998     2.706
   287   1 H        0.980    -0.014     3.298     2.838
   288   1 H        0.980    -0.015     3.315     2.845
   289   1 H        1.112     0.113     1.659     2.011
   290   1 H        0.980     0.023     2.682     2.559
   291   1 H        0.980    -0.007     3.172     2.783
   292   1 H        0.980     0.023     2.686     2.561
   293   1 H        0.980    -0.005     3.128     2.764
   294   1 H        0.980     0.000     3.045     2.727
   295   1 H        0.980     0.005     2.971     2.693
   296   1 H        0.980     0.004     2.975     2.695
   297   1 H        0.980     0.003     2.996     2.705
   298   1 H        0.980    -0.006     3.152     2.774
   299   1 H        0.980    -0.004     3.121     2.761
   300   1 H        0.980     0.005     2.967     2.692
   301   1 H        0.980     0.008     2.914     2.668
   302   1 H        0.980    -0.012     3.271     2.826
   303   1 H        0.980     0.005     2.969     2.693
   304   1 H        0.980     0.012     2.849     2.638
   305   1 H        0.980    -0.000     3.055     2.731
   306   1 H        0.980    -0.009     3.204     2.797
   307   1 H        0.860     0.295     0.728     1.337
   308   1 H        0.860     0.286     0.757     1.363
   309   1 H        0.860     0.300     0.715     1.324
   310   1 H        1.805     0.280     0.764     1.365

 Mol. C6AA /au·bohr⁶  :     780777.500781
 Mol. C8AA /au·bohr⁸  :   16759062.518803
 Mol. α(0) /au        :       1346.500821


Wiberg/Mayer (AO) data.
largest (>0.10) Wiberg bond orders for each atom

 ---------------------------------------------------------------------------
     #   Z sym  total        # sym  WBO       # sym  WBO       # sym  WBO
 ---------------------------------------------------------------------------
     1   7 N    2.969 --     2 C    1.019   156 H    0.959   155 H    0.953
     2   6 C    3.976 --     1 N    1.019   158 H    0.973   157 H    0.956
                             3 C    0.948
     3   6 C    3.945 --     4 O    1.622     5 N    1.320     2 C    0.948
     4   8 O    1.930 --     3 C    1.622     5 N    0.194
     5   7 N    3.484 --     3 C    1.320     6 C    0.979   159 H    0.925
                             4 O    0.194
     6   6 C    3.946 --     5 N    0.979     9 C    0.950   160 H    0.949
                             7 C    0.941
     7   6 C    3.952 --     8 O    1.639    19 N    1.302     6 C    0.941
     8   8 O    1.949 --     7 C    1.639    19 N    0.200
     9   6 C    3.978 --    10 C    1.025   162 H    0.971     6 C    0.950
                           161 H    0.944
    10   6 C    3.682 --    11 C    1.391    12 C    1.164     9 C    1.025
    11   6 C    3.953 --    13 N    1.418    10 C    1.391   163 H    0.970
    12   6 C    3.964 --    15 C    1.380    14 C    1.225    10 C    1.164
    13   7 N    2.723 --    11 C    1.418    14 C    1.195
    14   6 C    3.959 --    16 C    1.372    12 C    1.225    13 N    1.195
    15   6 C    3.885 --    17 C    1.402    12 C    1.380   164 H    0.967
    16   6 C    3.886 --    18 C    1.403    14 C    1.372   165 H    0.967
    17   6 C    3.940 --    18 C    1.423    15 C    1.402   166 H    0.972
    18   6 C    3.927 --    17 C    1.423    16 C    1.403   167 H    0.962
    19   7 N    3.473 --     7 C    1.302    20 C    0.978   168 H    0.910
                             8 O    0.200
    20   6 C    3.957 --    19 N    0.978    23 C    0.968   169 H    0.955
                            21 C    0.942
    21   6 C    3.946 --    22 O    1.616    28 N    1.310    20 C    0.942
    22   8 O    1.958 --    21 C    1.616    28 N    0.193
    23   6 C    3.979 --    24 C    0.998   170 H    0.973   171 H    0.972
                            20 C    0.968
    24   6 C    3.838 --    23 C    0.998   172 H    0.966   173 H    0.950
                            25 C    0.873
    25   6 C    3.902 --    27 O    1.506    26 O    1.500    24 C    0.873
    26   8 O    1.764 --    25 C    1.500    27 O    0.224
    27   8 O    1.771 --    25 C    1.506    26 O    0.224
    28   7 N    3.477 --    21 C    1.310    29 C    0.975   174 H    0.929
                            22 O    0.193
    29   6 C    3.956 --    28 N    0.975    32 C    0.969   175 H    0.946
                            30 C    0.939
    30   6 C    3.953 --    31 O    1.635    36 N    1.313    29 C    0.939
    31   8 O    1.951 --    30 C    1.635    36 N    0.203
    32   6 C    3.981 --    33 C    0.998    29 C    0.969   176 H    0.968
                           177 H    0.960
    33   6 C    3.970 --    32 C    0.998    34 S    0.996   179 H    0.969
                           178 H    0.956
    34  16 S    2.083 --    35 C    1.014    33 C    0.996
    35   6 C    3.969 --    34 S    1.014   181 H    0.979   180 H    0.977
                           182 H    0.966
    36   7 N    3.476 --    30 C    1.313    37 C    0.974   183 H    0.897
                            31 O    0.203
    37   6 C    3.967 --    38 C    1.004    36 N    0.974   184 H    0.944
                            40 C    0.941
    38   6 C    3.900 --    39 O    1.867    37 C    1.004   185 H    0.949
    39   8 O    2.062 --    38 C    1.867
    40   6 C    3.983 --    41 C    0.984   187 H    0.972   186 H    0.971
                            37 C    0.941
    41   6 C    3.992 --    42 C    1.012    43 C    1.004    40 C    0.984
                           188 H    0.961
    42   6 C    3.995 --    41 C    1.012   191 H    0.984   190 H    0.983
                           189 H    0.982
    43   6 C    3.994 --    41 C    1.004   194 H    0.987   193 H    0.985
                           192 H    0.983
    44   7 N    2.991 --    45 C    1.018   196 H    0.958   195 H    0.953
    45   6 C    3.978 --    44 N    1.018    46 C    0.992   197 H    0.951
                            48 C    0.931
    46   6 C    3.898 --    47 O    1.888    45 C    0.992   198 H    0.950
    47   8 O    2.034 --    46 C    1.888
    48   6 C    3.985 --    50 C    1.002    49 C    0.997   199 H    0.964
                            45 C    0.931
    49   6 C    3.998 --    51 C    1.017    48 C    0.997   200 H    0.977
                           201 H    0.976
    50   6 C    3.994 --    48 C    1.002   203 H    0.983   202 H    0.980
                           204 H    0.975
    51   6 C    3.996 --    49 C    1.017   206 H    0.986   205 H    0.986
                           207 H    0.980
    52   7 N    3.031 --    53 C    1.037   208 H    0.948   209 H    0.908
    53   6 C    3.944 --    52 N    1.037   210 H    0.966    54 C    0.933
                            56 C    0.901
    54   6 C    3.946 --    55 O    1.628    66 N    1.315    53 C    0.933
    55   8 O    1.972 --    54 C    1.628    66 N    0.197
    56   6 C    3.968 --    57 C    1.060   212 H    0.964   211 H    0.958
                            53 C    0.901
    57   6 C    3.729 --    58 C    1.367    59 C    1.159    56 C    1.060
    58   6 C    3.955 --    60 N    1.439    57 C    1.367   213 H    0.971
    59   6 C    3.970 --    62 C    1.376    61 C    1.242    57 C    1.159
    60   7 N    2.757 --    58 C    1.439    61 C    1.192
    61   6 C    3.964 --    63 C    1.362    59 C    1.242    60 N    1.192
    62   6 C    3.899 --    64 C    1.402    59 C    1.376   214 H    0.971
    63   6 C    3.900 --    65 C    1.415    61 C    1.362   215 H    0.967
    64   6 C    3.943 --    65 C    1.428    62 C    1.402   216 H    0.974
    65   6 C    3.935 --    64 C    1.428    63 C    1.415   217 H    0.972
    66   7 N    3.488 --    54 C    1.315    67 C    0.967   218 H    0.928
                            55 O    0.197
    67   6 C    3.954 --    66 N    0.967    70 C    0.955   219 H    0.951
                            68 C    0.948
    68   6 C    3.950 --    69 O    1.593    73 N    1.330    67 C    0.948
    69   8 O    1.926 --    68 C    1.593    73 N    0.197
    70   6 C    3.990 --    72 C    1.016    71 C    1.003   220 H    0.967
                            67 C    0.955
    71   6 C    3.992 --    70 C    1.003   222 H    0.983   223 H    0.982
                           221 H    0.977
    72   6 C    3.993 --    70 C    1.016   225 H    0.981   226 H    0.981
                           224 H    0.980
    73   7 N    3.488 --    68 C    1.330    74 C    0.984   227 H    0.892
                            69 O    0.197
    74   6 C    3.962 --    73 N    0.984    77 C    0.957    75 C    0.954
                           228 H    0.936
    75   6 C    3.954 --    76 O    1.626    83 N    1.306    74 C    0.954
    76   8 O    1.953 --    75 C    1.626    83 N    0.197
    77   6 C    3.986 --    78 C    1.019    74 C    0.957   230 H    0.951
                           229 H    0.949
    78   6 C    3.902 --    80 C    1.571    79 N    1.138    77 C    1.019
                            81 C    0.111
    79   7 N    3.492 --    81 C    1.312    78 C    1.138   310 H    0.730
                           110 O    0.129
    80   6 C    3.894 --    78 C    1.571    82 N    1.205   231 H    0.963
    81   6 C    3.209 --    82 N    1.695    79 N    1.312    78 C    0.111
    82   7 N    3.058 --    81 C    1.695    80 C    1.205
    83   7 N    3.468 --    75 C    1.306    84 C    0.977   232 H    0.904
                            76 O    0.197
    84   6 C    3.966 --    83 N    0.977    87 C    0.961   233 H    0.953
                            85 C    0.946
    85   6 C    3.949 --    86 O    1.629    92 N    1.305    84 C    0.946
    86   8 O    1.958 --    85 C    1.629    92 N    0.194
    87   6 C    3.988 --    88 C    1.011   234 H    0.973   235 H    0.969
                            84 C    0.961
    88   6 C    3.993 --    87 C    1.011    89 C    1.000   237 H    0.975
                           236 H    0.974
    89   6 C    3.983 --    90 C    1.008    88 C    1.000   239 H    0.969
                           238 H    0.966
    90   6 C    3.900 --    89 C    1.008   241 H    0.970   240 H    0.969
                            91 N    0.934
    91   7 N    3.651 --    90 C    0.934   308 H    0.907   307 H    0.902
                           309 H    0.873
    92   7 N    3.476 --    85 C    1.305    93 C    0.978   242 H    0.915
                            86 O    0.194
    93   6 C    3.968 --    94 C    0.979    92 N    0.978   243 H    0.938
                            96 C    0.935
    94   6 C    3.897 --    95 O    1.889    93 C    0.979   244 H    0.947
    95   8 O    2.073 --    94 C    1.889
    96   6 C    3.955 --    98 C    1.001    97 O    0.992   245 H    0.959
                            93 C    0.935
    97   8 O    1.945 --    96 C    0.992   246 H    0.868
    98   6 C    3.988 --    96 C    1.001   247 H    0.981   249 H    0.977
                           248 H    0.974
    99   7 N    2.990 --   100 C    1.022   250 H    0.955   251 H    0.951
   100   6 C    3.975 --    99 N    1.022   252 H    0.957   101 C    0.955
                           103 C    0.942
   101   6 C    3.948 --   102 O    1.615   111 N    1.312   100 C    0.955
   102   8 O    1.924 --   101 C    1.615   111 N    0.197
   103   6 C    3.981 --   104 C    1.010   253 H    0.976   254 H    0.962
                           100 C    0.942
   104   6 C    3.981 --   106 C    1.404   105 C    1.395   103 C    1.010
   105   6 C    3.990 --   107 C    1.471   104 C    1.395   255 H    0.957
                           108 C    0.100
   106   6 C    3.988 --   108 C    1.455   104 C    1.404   256 H    0.971
                           107 C    0.104
   107   6 C    3.987 --   105 C    1.471   109 C    1.351   257 H    0.967
                           106 C    0.104
   108   6 C    3.988 --   106 C    1.455   109 C    1.376   258 H    0.967
                           105 C    0.100
   109   6 C    3.927 --   108 C    1.376   107 C    1.351   110 O    1.059
   110   8 O    2.073 --   109 C    1.059   259 H    0.689    79 N    0.129
   111   7 N    3.482 --   101 C    1.312   112 C    0.981   260 H    0.908
                           102 O    0.197
   112   6 C    3.964 --   111 N    0.981   261 H    0.957   113 C    0.951
                           115 C    0.947
   113   6 C    3.951 --   114 O    1.592   118 N    1.329   112 C    0.951
   114   8 O    1.931 --   113 C    1.592   118 N    0.195
   115   6 C    3.989 --   116 C    1.010   117 C    1.003   262 H    0.970
                           112 C    0.947
   116   6 C    3.994 --   115 C    1.010   263 H    0.985   264 H    0.978
                           265 H    0.975
   117   6 C    3.992 --   115 C    1.003   266 H    0.987   268 H    0.986
                           267 H    0.985
   118   7 N    3.491 --   113 C    1.329   119 C    0.967   269 H    0.922
                           114 O    0.195
   119   6 C    3.961 --   120 C    0.986   118 N    0.967   122 C    0.967
                           270 H    0.932
   120   6 C    3.854 --   121 O    1.861   119 C    0.986   271 H    0.831
   121   8 O    2.032 --   120 C    1.861
   122   6 C    3.984 --   272 H    0.985   274 H    0.978   273 H    0.973
                           119 C    0.967
   123   1 H    1.000 --   275 H    0.995
   124   1 H    1.000 --   276 H    0.985
   125   1 H    1.000 --   277 H    0.969
   126   1 H    1.000 --   278 H    0.962
   127   1 H    0.999 --   279 H    0.940
   128   1 H    0.999 --   280 H    0.942
   129   1 H    1.000 --   281 H    0.955
   130   1 H    1.000 --   282 H    0.981
   131   1 H    1.000 --   283 H    0.961
   132   1 H    1.000 --   284 H    0.989
   133   1 H    1.000 --   285 H    0.997
   134   1 H    1.000 --   286 H    0.973
   135   1 H    1.000 --   287 H    0.986
   136   1 H    1.000 --   288 H    0.975
   137   1 H    0.994 --   289 H    0.859
   138   1 H    0.999 --   290 H    0.979
   139   1 H    1.000 --   291 H    0.950
   140   1 H    1.000 --   292 H    0.938
   141   1 H    1.000 --   293 H    0.988
   142   1 H    1.000 --   294 H    0.984
   143   1 H    0.999 --   295 H    0.974
   144   1 H    1.000 --   296 H    0.994
   145   1 H    1.000 --   297 H    0.981
   146   1 H    1.000 --   298 H    0.982
   147   1 H    1.000 --   299 H    0.991
   148   1 H    1.000 --   300 H    0.977
   149   1 H    1.000 --   301 H    0.969
   150   1 H    1.000 --   302 H    0.963
   151   1 H    1.000 --   303 H    0.972
   152   1 H    1.000 --   304 H    0.931
   153   1 H    1.000 --   305 H    0.953
   154   1 H    0.999 --   306 H    0.886
   155   1 H    0.966 --     1 N    0.953
   156   1 H    0.973 --     1 N    0.959
   157   1 H    0.989 --     2 C    0.956
   158   1 H    0.993 --     2 C    0.973
   159   1 H    0.957 --     5 N    0.925
   160   1 H    0.993 --     6 C    0.949
   161   1 H    0.976 --     9 C    0.944
   162   1 H    0.994 --     9 C    0.971
   163   1 H    0.997 --    11 C    0.970
   164   1 H    0.996 --    15 C    0.967
   165   1 H    0.994 --    16 C    0.967
   166   1 H    0.997 --    17 C    0.972
   167   1 H    0.996 --    18 C    0.962
   168   1 H    0.948 --    19 N    0.910
   169   1 H    0.993 --    20 C    0.955
   170   1 H    0.995 --    23 C    0.973
   171   1 H    0.993 --    23 C    0.972
   172   1 H    0.991 --    24 C    0.966
   173   1 H    0.990 --    24 C    0.950
   174   1 H    0.958 --    28 N    0.929
   175   1 H    0.990 --    29 C    0.946
   176   1 H    0.995 --    32 C    0.968
   177   1 H    0.995 --    32 C    0.960
   178   1 H    0.994 --    33 C    0.956
   179   1 H    0.987 --    33 C    0.969
   180   1 H    0.994 --    35 C    0.977
   181   1 H    0.989 --    35 C    0.979
   182   1 H    0.990 --    35 C    0.966
   183   1 H    0.946 --    36 N    0.897
   184   1 H    0.990 --    37 C    0.944
   185   1 H    0.993 --    38 C    0.949
   186   1 H    0.995 --    40 C    0.971
   187   1 H    0.996 --    40 C    0.972
   188   1 H    0.998 --    41 C    0.961
   189   1 H    0.998 --    42 C    0.982
   190   1 H    0.999 --    42 C    0.983
   191   1 H    0.997 --    42 C    0.984
   192   1 H    0.998 --    43 C    0.983
   193   1 H    0.997 --    43 C    0.985
   194   1 H    0.998 --    43 C    0.987
   195   1 H    0.970 --    44 N    0.953
   196   1 H    0.974 --    44 N    0.958
   197   1 H    0.992 --    45 C    0.951
   198   1 H    0.995 --    46 C    0.950
   199   1 H    0.998 --    48 C    0.964
   200   1 H    0.999 --    49 C    0.977
   201   1 H    0.998 --    49 C    0.976
   202   1 H    0.998 --    50 C    0.980
   203   1 H    0.997 --    50 C    0.983
   204   1 H    0.997 --    50 C    0.975
   205   1 H    0.998 --    51 C    0.986
   206   1 H    0.998 --    51 C    0.986
   207   1 H    0.998 --    51 C    0.980
   208   1 H    0.964 --    52 N    0.948
   209   1 H    0.954 --    52 N    0.908
   210   1 H    0.995 --    53 C    0.966
   211   1 H    0.988 --    56 C    0.958
   212   1 H    0.991 --    56 C    0.964
   213   1 H    0.998 --    58 C    0.971
   214   1 H    0.998 --    62 C    0.971
   215   1 H    0.995 --    63 C    0.967
   216   1 H    0.997 --    64 C    0.974
   217   1 H    0.997 --    65 C    0.972
   218   1 H    0.958 --    66 N    0.928
   219   1 H    0.991 --    67 C    0.951
   220   1 H    0.998 --    70 C    0.967
   221   1 H    0.998 --    71 C    0.977
   222   1 H    0.998 --    71 C    0.983
   223   1 H    0.996 --    71 C    0.982
   224   1 H    0.998 --    72 C    0.980
   225   1 H    0.997 --    72 C    0.981
   226   1 H    0.997 --    72 C    0.981
   227   1 H    0.944 --    73 N    0.892
   228   1 H    0.990 --    74 C    0.936
   229   1 H    0.992 --    77 C    0.949
   230   1 H    0.989 --    77 C    0.951
   231   1 H    0.995 --    80 C    0.963
   232   1 H    0.949 --    83 N    0.904
   233   1 H    0.995 --    84 C    0.953
   234   1 H    0.996 --    87 C    0.973
   235   1 H    0.995 --    87 C    0.969
   236   1 H    0.997 --    88 C    0.974
   237   1 H    0.996 --    88 C    0.975
   238   1 H    0.991 --    89 C    0.966
   239   1 H    0.996 --    89 C    0.969
   240   1 H    0.986 --    90 C    0.969
   241   1 H    0.986 --    90 C    0.970
   242   1 H    0.954 --    92 N    0.915
   243   1 H    0.990 --    93 C    0.938
   244   1 H    0.992 --    94 C    0.947
   245   1 H    0.994 --    96 C    0.959
   246   1 H    0.892 --    97 O    0.868
   247   1 H    0.996 --    98 C    0.981
   248   1 H    0.996 --    98 C    0.974
   249   1 H    0.995 --    98 C    0.977
   250   1 H    0.969 --    99 N    0.955
   251   1 H    0.968 --    99 N    0.951
   252   1 H    0.996 --   100 C    0.957
   253   1 H    0.997 --   103 C    0.976
   254   1 H    0.995 --   103 C    0.962
   255   1 H    0.997 --   105 C    0.957
   256   1 H    0.997 --   106 C    0.971
   257   1 H    0.998 --   107 C    0.967
   258   1 H    0.996 --   108 C    0.967
   259   1 H    0.863 --   110 O    0.689   310 H    0.142
   260   1 H    0.951 --   111 N    0.908
   261   1 H    0.994 --   112 C    0.957
   262   1 H    0.997 --   115 C    0.970
   263   1 H    0.998 --   116 C    0.985
   264   1 H    0.999 --   116 C    0.978
   265   1 H    0.996 --   116 C    0.975
   266   1 H    0.998 --   117 C    0.987
   267   1 H    0.997 --   117 C    0.985
   268   1 H    0.998 --   117 C    0.986
   269   1 H    0.954 --   118 N    0.922
   270   1 H    0.989 --   119 C    0.932
   271   1 H    0.981 --   120 C    0.831
   272   1 H    0.996 --   122 C    0.985
   273   1 H    0.994 --   122 C    0.973
   274   1 H    0.996 --   122 C    0.978
   275   1 H    1.000 --   123 H    0.995
   276   1 H    1.000 --   124 H    0.985
   277   1 H    1.000 --   125 H    0.969
   278   1 H    1.000 --   126 H    0.962
   279   1 H    1.000 --   127 H    0.940
   280   1 H    0.999 --   128 H    0.942
   281   1 H    1.000 --   129 H    0.955
   282   1 H    1.000 --   130 H    0.981
   283   1 H    1.000 --   131 H    0.961
   284   1 H    1.000 --   132 H    0.989
   285   1 H    1.000 --   133 H    0.997
   286   1 H    1.000 --   134 H    0.973
   287   1 H    1.000 --   135 H    0.986
   288   1 H    1.000 --   136 H    0.975
   289   1 H    0.985 --   137 H    0.859
   290   1 H    0.999 --   138 H    0.979
   291   1 H    1.000 --   139 H    0.950
   292   1 H    0.999 --   140 H    0.938
   293   1 H    1.000 --   141 H    0.988
   294   1 H    1.000 --   142 H    0.984
   295   1 H    0.999 --   143 H    0.974
   296   1 H    1.000 --   144 H    0.994
   297   1 H    1.000 --   145 H    0.981
   298   1 H    1.000 --   146 H    0.982
   299   1 H    1.000 --   147 H    0.991
   300   1 H    1.000 --   148 H    0.977
   301   1 H    1.000 --   149 H    0.969
   302   1 H    1.000 --   150 H    0.963
   303   1 H    1.000 --   151 H    0.972
   304   1 H    1.000 --   152 H    0.931
   305   1 H    1.000 --   153 H    0.953
   306   1 H    1.000 --   154 H    0.886
   307   1 H    0.913 --    91 N    0.902
   308   1 H    0.918 --    91 N    0.907
   309   1 H    0.910 --    91 N    0.873
   310   1 H    0.921 --    79 N    0.730   259 H    0.142
 ---------------------------------------------------------------------------

Topologies differ in total number of bonds
Writing topology from bond orders to xtbtopo.mol

molecular dipole:
                 x           y           z       tot (Debye)
 q only:      134.846      -0.919      38.384
   full:      134.666      -1.394      36.970     354.970
molecular quadrupole (traceless):
                xx          xy          yy          xz          yz          zz
 q only:    17478.918    -139.131  -10028.452    7850.667      30.437   -7450.465
  q+dip:    17513.280    -256.503   -9984.370    7554.051      18.741   -7528.911
   full:    17502.656    -250.746   -9982.321    7553.172      16.763   -7520.335


           -------------------------------------------------
          | TOTAL ENERGY             -404.571986442308 Eh   |
          | GRADIENT NORM               1.659791192430 Eh/α |
          | HOMO-LUMO GAP               0.006644759780 eV   |
           -------------------------------------------------
########################################################################
[WARNING] Runtime exception occurred
-3- restart_readRestart: Dimension missmatch in restart file.
-2- restart_readRestart: Multiplicity missmatch in restart file.
-1- restart_readRestart: Number of electron missmatch in restart file.
########################################################################

------------------------------------------------------------------------
 * finished run on 2025/05/05 at 16:39:39.731     
------------------------------------------------------------------------
 total:
 * wall-time:     0 d,  0 h,  0 min,  2.920 sec
 *  cpu-time:     0 d,  0 h,  1 min, 25.383 sec
 * ratio c/w:    29.242 speedup
 SCF:
 * wall-time:     0 d,  0 h,  0 min,  2.881 sec
 *  cpu-time:     0 d,  0 h,  1 min, 24.333 sec
 * ratio c/w:    29.273 speedup

