      -----------------------------------------------------------      
     |                   =====================                   |     
     |                           x T B                           |     
     |                   =====================                   |     
     |                         S. Grimme                         |     
     |          Mulliken Center for Theoretical Chemistry        |     
     |                    University of Bonn                     |     
      -----------------------------------------------------------      

   * xtb version 6.7.1 (edcfbbe) compiled by 'conda@afd1a870197c' on 2025-04-11

   xtb is free software: you can redistribute it and/or modify it under
   the terms of the GNU Lesser General Public License as published by
   the Free Software Foundation, either version 3 of the License, or
   (at your option) any later version.
   
   xtb is distributed in the hope that it will be useful,
   but WITHOUT ANY WARRANTY; without even the implied warranty of
   MERCHANTABILITY or FITNESS FOR A PARTICULAR PURPOSE.  See the
   GNU Lesser General Public License for more details.
   
   Cite this work as:
   * C. Bannwarth, E. Caldeweyher, S. Ehlert, A. Hansen, P. Pracht,
     J. Seibert, S. Spicher, S. Grimme, WIREs Comput. Mol. Sci., 2020, 11,
     e01493. DOI: 10.1002/wcms.1493
   
   for GFN2-xTB:
   * C. Bannwarth, S. Ehlert and S. Grimme., J. Chem. Theory Comput., 2019,
     15, 1652-1671. DOI: 10.1021/acs.jctc.8b01176
   for GFN1-xTB:
   * S. Grimme, C. Bannwarth, P. Shushkov, J. Chem. Theory Comput., 2017,
     13, 1989-2009. DOI: 10.1021/acs.jctc.7b00118
   for GFN0-xTB:
   * P. Pracht, E. Caldeweyher, S. Ehlert, S. Grimme, ChemRxiv, 2019, preprint.
     DOI: 10.26434/chemrxiv.8326202.v1
   for GFN-FF:
   * S. Spicher and S. Grimme, Angew. Chem. Int. Ed., 2020, 59, 15665-15673.
     DOI: 10.1002/anie.202004239
   
   for ALPB and GBSA implicit solvation:
   * S. Ehlert, M. Stahn, S. Spicher, S. Grimme, J. Chem. Theory Comput.,
     2021, 17, 4250-4261. DOI: 10.1021/acs.jctc.1c00471
   
   for ddCOSMO and CPCM-X implicit solvation:
   * M. Stahn, S. Ehlert, S. Grimme, J. Phys. Chem. A,
     2023, XX, XXXX-XXXX. DOI: 10.1021/acs.jpca.3c04382
   
   for DFT-D4:
   * E. Caldeweyher, C. Bannwarth and S. Grimme, J. Chem. Phys., 2017,
     147, 034112. DOI: 10.1063/1.4993215
   * E. Caldeweyher, S. Ehlert, A. Hansen, H. Neugebauer, S. Spicher,
     C. Bannwarth and S. Grimme, J. Chem. Phys., 2019, 150, 154122.
     DOI: 10.1063/1.5090222
   * E. Caldeweyher, J.-M. Mewes, S. Ehlert and S. Grimme, Phys. Chem. Chem. Phys.
     2020, 22, 8499-8512. DOI: 10.1039/D0CP00502A
   
   for sTDA-xTB:
   * S. Grimme and C. Bannwarth, J. Chem. Phys., 2016, 145, 054103.
     DOI: 10.1063/1.4959605
   
   in the mass-spec context:
   * V. Asgeirsson, C. Bauer and S. Grimme, Chem. Sci., 2017, 8, 4879.
     DOI: 10.1039/c7sc00601b
   * J. Koopman and S. Grimme, ACS Omega 2019, 4, 12, 15120-15133.
     DOI: 10.1021/acsomega.9b02011
   
   for metadynamics refer to:
   * S. Grimme, J. Chem. Theory Comput., 2019, 155, 2847-2862
     DOI: 10.1021/acs.jctc.9b00143
   
   for SPH calculations refer to:
   * S. Spicher and S. Grimme, J. Chem. Theory Comput., 2021, 17, 1701-1714
     DOI: 10.1021/acs.jctc.0c01306
   
   for ONIOM refer to:
   * C. Plett, A. Katbashev, S. Ehlert, S. Grimme, M. Bursch,
     Phys. Chem. Chem. Phys., 2023, 25, 17860-17868. DOI: 10.1039/D3CP02178E
   
   for DIPRO refer to:
   * J. Kohn, N. Gildemeister, S. Grimme, D. Fazzi, A. Hansen,
     J. Chem. Phys., 2023, just accepted.
   
   for PTB refer to:
   * S. Grimme, M. Mueller, A. Hansen, J. Chem. Phys., 2023, 158, 124111.
     DOI: 10.1063/5.0137838
   
   with help from (in alphabetical order)
   P. Atkinson, C. Bannwarth, F. Bohle, G. Brandenburg, E. Caldeweyher
   M. Checinski, S. Dohm, S. Ehlert, S. Ehrlich, I. Gerasimov, C. Hölzer
   A. Katbashev, J. Kohn, J. Koopman, C. Lavigne, S. Lehtola, F. März, M. Müller,
   F. Musil, H. Neugebauer, J. Pisarek, C. Plett, P. Pracht, F. Pultar,
   J. Seibert, P. Shushkov, S. Spicher, M. Stahn, M. Steiner, T. Strunk,
   J. Stückrath, T. Rose, and J. Unsleber
   
 * started run on 2025/05/05 at 17:14:09.927     
   ID    Z sym.   atoms
    1    7 N      1, 9, 16, 17, 24, 26-28, 36, 37, 42, 51, 57, 60, 61, 69,
                  75, 78, 79, 85
    2    6 C      2, 3, 5-8, 10, 11, 13, 14, 18, 19, 21-23, 25, 29, 30,
                  32-34, 38, 39, 41, 43, 44, 46-48, 52, 53, 55, 56, 58, 59,
                  62, 63, 65-68, 70, 71, 73, 74, 76, 77, 80, 81, 83, 86, 87,
                  89-92
    3    8 O      4, 12, 15, 20, 31, 35, 40, 45, 49, 50, 54, 64, 72, 82, 84,
                  88
    4    1 H      93-187

           -------------------------------------------------
          |                Calculation Setup                |
           -------------------------------------------------

          program call               : xtb /tmp/tmp60vnks0a/HIE/input.xyz --alpb ether --chrg 1 --input /tmp/tmp60vnks0a/HIE/constraints.inp --gfn 2
          hostname                   : fedora
          coordinate file            : /tmp/tmp60vnks0a/HIE/input.xyz
          omp threads                :                    32


molecular fragmentation (1/2 indicates fragments):
111111111111111111111111111222222222222222222222222222222222222222222222
222222222222222222221111111111111111111111111111111222222222222222222222
2222222222222222222222222222222222222222212
# atoms in fragment 1/2:    59   128
 fragment masses (1/2) :      386.47      918.01
CMA distance (Bohr)    :  16.015
constraining FC (au)   :  0.0500
########################################################################
[WARNING] Please study the warnings concerning your input carefully
-1- readin_getIntValue: could not parse 'S'
########################################################################

           -------------------------------------------------
          |                 G F N 2 - x T B                 |
           -------------------------------------------------

        Reference                      10.1021/acs.jctc.8b01176
      * Hamiltonian:
        H0-scaling (s, p, d)           1.850000    2.230000    2.230000
        zeta-weighting                 0.500000
      * Dispersion:
        s8                             2.700000
        a1                             0.520000
        a2                             5.000000
        s9                             5.000000
      * Repulsion:
        kExp                           1.500000    1.000000
        rExp                           1.000000
      * Coulomb:
        alpha                          2.000000
        third order                    shell-resolved
        anisotropic                    true
        a3                             3.000000
        a5                             4.000000
        cn-shift                       1.200000
        cn-exp                         4.000000
        max-rad                        5.000000

      * Solvation model:               ALPB
        Solvent                        ether
        Parameter file                 internal GFN2-xTB/ALPB
        Dielectric constant                4.3300E+00
        Reference state                gsolv [1 M gas/solution]
        Free energy shift                  4.9534E-03 Eh       3.1083E+00 kcal/mol
        Temperature                        2.9815E+02 K
        Density                            7.1300E-01 kg/L
        Solvent mass                       7.4120E+01 g/mol
        Interaction kernel             P16
        Born radius scaling (c1)           1.5847E+00
        Born radii integrator          GBOBC
        Born offset                        0.0000E+00 a0       0.0000E+00 AA
        H-bond correction              true
        Ion screening                  false
        Surface tension                    1.0000E-05 Eh       1.5569E+01 dyn/cm
        Grid points                               230 per atom

          ...................................................
          :                      SETUP                      :
          :.................................................:
          :  # basis functions                 463          :
          :  # atomic orbitals                 463          :
          :  # shells                          279          :
          :  # electrons                       514          :
          :  max. iterations                   250          :
          :  Hamiltonian                  GFN2-xTB          :
          :  restarted?                      false          :
          :  GBSA solvation                   true          :
          :  PC potential                    false          :
          :  electronic temp.          300.0000000     K    :
          :  accuracy                    1.0000000          :
          :  -> integral cutoff          0.2500000E+02      :
          :  -> integral neglect         0.1000000E-07      :
          :  -> SCF convergence          0.1000000E-05 Eh   :
          :  -> wf. convergence          0.1000000E-03 e    :
          :  Broyden damping             0.4000000          :
          :  net charge                          1          :
          :  unpaired electrons                  0          :
          ...................................................

 iter      E             dE          RMSdq      gap      omega  full diag
   1   -292.4472284 -0.292447E+03  0.473E+00    0.10       0.0  T
   2   -290.5499798  0.189725E+01  0.414E+00    0.56       1.0  T
   3   -293.0422310 -0.249225E+01  0.291E+00    0.37       1.0  T
   4   -293.7232458 -0.681015E+00  0.238E+00    0.09       1.0  T
   5   -294.1211888 -0.397943E+00  0.202E+00    0.21       1.0  T
   6   -293.3548753  0.766313E+00  0.238E+00    0.39       1.0  T
   7   -294.5292789 -0.117440E+01  0.162E+00    0.30       1.0  T
   8   -294.7861334 -0.256855E+00  0.136E+00    0.25       1.0  T
   9   -294.3917563  0.394377E+00  0.146E+00    0.46       1.0  T
  10   -294.8763504 -0.484594E+00  0.102E+00    0.08       1.0  T
  11   -294.6668657  0.209485E+00  0.115E+00    0.00       1.0  T
  12   -294.8797854 -0.212920E+00  0.992E-01    0.31       1.0  T
  13   -294.7217219  0.158064E+00  0.103E+00    0.02       1.0  T
  14   -294.9439091 -0.222187E+00  0.767E-01    0.10       1.0  T
  15   -294.9235123  0.203968E-01  0.725E-01    0.01       1.0  T
  16   -295.0229646 -0.994523E-01  0.524E-01    0.03       1.0  T
  17   -294.8440103  0.178954E+00  0.936E-01    0.08       1.0  T
  18   -294.9905620 -0.146552E+00  0.633E-01    0.01       1.0  T
  19   -295.0314758 -0.409138E-01  0.517E-01    0.01       1.0  T
  20   -294.8684176  0.163058E+00  0.864E-01    0.08       1.0  T
  21   -295.0048571 -0.136439E+00  0.470E-01    0.04       1.0  T
  22   -295.0300283 -0.251711E-01  0.485E-01    0.10       1.0  T
  23   -295.0561138 -0.260855E-01  0.335E-01    0.03       1.0  T
  24   -295.0517514  0.436239E-02  0.348E-01    0.07       1.0  T
  25   -295.0580954 -0.634404E-02  0.327E-01    0.06       1.0  T
  26   -295.0583444 -0.248990E-03  0.325E-01    0.06       1.0  T
  27   -295.0568220  0.152238E-02  0.328E-01    0.06       1.0  T
  28   -295.0660908 -0.926876E-02  0.265E-01    0.07       1.0  T
  29   -295.0675711 -0.148032E-02  0.243E-01    0.07       1.0  T
  30   -295.0731191 -0.554798E-02  0.185E-01    0.06       1.0  T
  31   -295.0779798 -0.486068E-02  0.124E-01    0.05       1.0  T
  32   -295.0778066  0.173185E-03  0.119E-01    0.05       1.0  T
  33   -295.0799855 -0.217893E-02  0.745E-02    0.05       1.0  T
  34   -295.0807920 -0.806432E-03  0.505E-02    0.04       1.0  T
  35   -295.0814801 -0.688110E-03  0.186E-02    0.04       1.0  T
  36   -295.0814696  0.104275E-04  0.201E-02    0.04       1.0  T
  37   -295.0811169  0.352694E-03  0.379E-02    0.04       1.0  T
  38   -295.0814148 -0.297878E-03  0.212E-02    0.04       1.0  T
  39   -295.0815015 -0.866915E-04  0.138E-02    0.04       1.0  T
  40   -295.0815581 -0.565787E-04  0.486E-03    0.04       1.5  T
  41   -295.0815675 -0.939035E-05  0.227E-03    0.04       3.2  T
  42   -295.0815661  0.140907E-05  0.269E-03    0.04       2.7  T
  43   -295.0815664 -0.288787E-06  0.260E-03    0.04       2.8  T
  44   -295.0815684 -0.206936E-05  0.720E-04    0.04      10.2  T
  45   -295.0815686 -0.189011E-06  0.267E-04    0.04      27.4  T
  46   -295.0815686  0.634464E-08  0.282E-04    0.04      26.0  T

   *** convergence criteria satisfied after 46 iterations ***

         #    Occupation            Energy/Eh            Energy/eV
      -------------------------------------------------------------
         1        2.0000           -0.7727138             -21.0266
       ...           ...                  ...                  ...
       251        1.9882           -0.4015405             -10.9265
       252        1.9856           -0.4013479             -10.9212
       253        1.9624           -0.4004292             -10.8962
       254        1.9480           -0.4001129             -10.8876
       255        1.8808           -0.3992915             -10.8653
       256        1.7539           -0.3985365             -10.8447
       257        1.4908           -0.3976913             -10.8217 (HOMO)
       258        0.7497           -0.3961848             -10.7807 (LUMO)
       259        0.2415           -0.3947847             -10.7426
       260                         -0.3203707              -8.7177
       261                         -0.3180629              -8.6549
       262                         -0.2956253              -8.0444
       ...                                ...                  ...
       463                          0.6773476              18.4316
      -------------------------------------------------------------
                  HL-Gap            0.0015065 Eh            0.0410 eV
             Fermi-level           -0.3966707 Eh          -10.7940 eV

 SCC (total)                   0 d,  0 h,  0 min,  1.416 sec
 SCC setup                      ...        0 min,  0.002 sec (  0.160%)
 Dispersion                     ...        0 min,  0.006 sec (  0.434%)
 classical contributions        ...        0 min,  0.000 sec (  0.022%)
 integral evaluation            ...        0 min,  0.012 sec (  0.876%)
 iterations                     ...        0 min,  1.360 sec ( 96.044%)
 molecular gradient             ...        0 min,  0.033 sec (  2.346%)
 printout                       ...        0 min,  0.002 sec (  0.117%)

         :::::::::::::::::::::::::::::::::::::::::::::::::::::
         ::                     SUMMARY                     ::
         :::::::::::::::::::::::::::::::::::::::::::::::::::::
         :: total energy            -291.355848960006 Eh    ::
         :: total w/o Gsasa/hb      -291.267247800726 Eh    ::
         :: gradient norm              0.342066964739 Eh/a0 ::
         :: HOMO-LUMO gap              0.040993599857 eV    ::
         ::.................................................::
         :: SCC energy              -295.069398658265 Eh    ::
         :: -> isotropic ES            0.822673735801 Eh    ::
         :: -> anisotropic ES         -0.003006662535 Eh    ::
         :: -> anisotropic XC          0.104183512545 Eh    ::
         :: -> dispersion             -0.210769417399 Eh    ::
         :: -> Gsolv                  -0.242246836789 Eh    ::
         ::    -> Gelec               -0.153645677509 Eh    ::
         ::    -> Gsasa               -0.073944961283 Eh    ::
         ::    -> Ghb                 -0.019609635574 Eh    ::
         ::    -> Gshift               0.004953437577 Eh    ::
         :: repulsion energy           3.713549698259 Eh    ::
         :: add. restraining           0.000000000000 Eh    ::
         :: total charge               1.000000000004 e     ::
         :::::::::::::::::::::::::::::::::::::::::::::::::::::

           -------------------------------------------------
          |                Property Printout                |
           -------------------------------------------------

    * Orbital Energies and Occupations

         #    Occupation            Energy/Eh            Energy/eV
      -------------------------------------------------------------
         1        2.0000           -0.7727138             -21.0266
       ...           ...                  ...                  ...
       245        2.0000           -0.4140081             -11.2657
       246        2.0000           -0.4129096             -11.2358
       247        2.0000           -0.4105675             -11.1721
       248        2.0000           -0.4095460             -11.1443
       249        2.0000           -0.4076477             -11.0927
       250        1.9991           -0.4039959             -10.9933
       251        1.9882           -0.4015405             -10.9265
       252        1.9856           -0.4013479             -10.9212
       253        1.9624           -0.4004292             -10.8962
       254        1.9480           -0.4001129             -10.8876
       255        1.8808           -0.3992915             -10.8653
       256        1.7539           -0.3985365             -10.8447
       257        1.4908           -0.3976913             -10.8217 (HOMO)
       258        0.7497           -0.3961848             -10.7807 (LUMO)
       259        0.2415           -0.3947847             -10.7426
       260                         -0.3203707              -8.7177
       261                         -0.3180629              -8.6549
       262                         -0.2956253              -8.0444
       263                         -0.2892843              -7.8718
       264                         -0.2671736              -7.2702
       265                         -0.2634554              -7.1690
       266                         -0.2553689              -6.9489
       267                         -0.2458436              -6.6897
       268                         -0.2416516              -6.5757
       ...                                ...                  ...
       463                          0.6773476              18.4316
      -------------------------------------------------------------
                  HL-Gap            0.0015065 Eh            0.0410 eV
             Fermi-level           -0.3966707 Eh          -10.7940 eV

     #   Z          covCN         q      C6AA      α(0)
     1   7 N        2.630    -0.375    29.683     8.091
     2   6 C        3.788     0.029    20.098     6.385
     3   6 C        2.757     0.262    22.591     7.783
     4   8 O        0.859    -0.499    23.768     6.536
     5   6 C        3.814    -0.076    21.937     6.666
     6   6 C        3.853    -0.014    20.792     6.485
     7   6 C        3.760    -0.123    22.898     6.822
     8   6 C        3.761    -0.118    22.816     6.809
     9   7 N        2.688    -0.181    24.932     7.416
    10   6 C        3.802     0.019    20.261     6.408
    11   6 C        2.758     0.271    22.429     7.756
    12   8 O        0.859    -0.483    23.420     6.488
    13   6 C        3.815    -0.112    22.622     6.769
    14   6 C        2.744     0.284    22.194     7.714
    15   8 O        0.859    -0.493    23.629     6.517
    16   7 N        2.640    -0.280    27.235     7.751
    17   7 N        2.689    -0.163    24.522     7.355
    18   6 C        3.796     0.020    20.245     6.407
    19   6 C        2.764     0.197    23.796     7.989
    20   8 O        0.856    -0.345    20.621     6.088
    21   6 C        3.812    -0.081    22.031     6.681
    22   6 C        3.807    -0.091    22.222     6.711
    23   6 C        3.746    -0.033    21.241     6.574
    24   7 N        2.701    -0.144    24.124     7.295
    25   6 C        2.737     0.237    23.046     7.860
    26   7 N        2.656    -0.269    26.960     7.712
    27   7 N        2.655    -0.252    26.549     7.653
    28   7 N        2.629    -0.354    29.123     8.015
    29   6 C        3.784     0.032    20.050     6.378
    30   6 C        2.763     0.203    23.680     7.969
    31   8 O        0.856    -0.376    21.206     6.174
    32   6 C        3.809    -0.065    21.740     6.637
    33   6 C        3.809    -0.099    22.387     6.735
    34   6 C        2.743     0.282    22.218     7.718
    35   8 O        0.859    -0.503    23.853     6.548
    36   7 N        2.639    -0.264    26.849     7.696
    37   7 N        2.632    -0.362    29.348     8.046
    38   6 C        3.788     0.025    20.170     6.396
    39   6 C        2.756     0.263    22.573     7.780
    40   8 O        0.859    -0.503    23.849     6.548
    41   6 C        3.762    -0.121    22.874     6.818
    42   7 N        2.689    -0.161    24.490     7.350
    43   6 C        3.794     0.026    20.139     6.390
    44   6 C        2.765     0.203    23.677     7.969
    45   8 O        0.856    -0.333    20.381     6.053
    46   6 C        3.812    -0.068    21.796     6.645
    47   6 C        3.807    -0.074    21.916     6.664
    48   6 C        2.689     0.384    20.506     7.411
    49   8 O        0.857    -0.500    23.787     6.539
    50   8 O        0.857    -0.503    23.850     6.548
    51   7 N        2.629    -0.324    28.335     7.906
    52   6 C        3.789     0.023    20.201     6.401
    53   6 C        2.759     0.272    22.410     7.752
    54   8 O        0.860    -0.473    23.188     6.456
    55   6 C        3.814    -0.074    21.904     6.661
    56   6 C        3.089     0.064    26.475     8.434
    57   7 N        1.990    -0.241    27.094     7.720
    58   6 C        3.059     0.005    27.861     8.656
    59   6 C        2.110     0.172    26.764     8.359
    60   7 N        1.980    -0.232    26.885     7.690
    61   7 N        2.691    -0.161    24.485     7.349
    62   6 C        3.804     0.010    20.401     6.430
    63   6 C        2.763     0.276    22.336     7.740
    64   8 O        0.864    -0.479    23.325     6.475
    65   6 C        3.827    -0.082    22.046     6.681
    66   6 C        3.857    -0.011    20.743     6.477
    67   6 C        3.767    -0.122    22.884     6.818
    68   6 C        3.768    -0.119    22.824     6.809
    69   7 N        2.696    -0.177    24.822     7.399
    70   6 C        3.805     0.024    20.175     6.394
    71   6 C        2.758     0.269    22.456     7.760
    72   8 O        0.859    -0.462    22.958     6.424
    73   6 C        3.813    -0.080    22.022     6.680
    74   6 C        3.087     0.069    26.353     8.415
    75   7 N        1.988    -0.236    26.982     7.704
    76   6 C        3.057    -0.031    28.706     8.786
    77   6 C        2.107     0.054    29.503     8.777
    78   7 N        2.837    -0.050    22.210     6.999
    79   7 N        2.690    -0.155    24.364     7.331
    80   6 C        3.798     0.010    20.416     6.434
    81   6 C        2.756     0.269    22.451     7.759
    82   8 O        0.859    -0.475    23.249     6.465
    83   6 C        3.682     0.068    19.639     6.346
    84   8 O        1.654    -0.449    21.827     6.307
    85   7 N        2.691    -0.171    24.705     7.382
    86   6 C        3.794     0.025    20.156     6.393
    87   6 C        2.766     0.198    23.787     7.987
    88   8 O        0.856    -0.355    20.807     6.116
    89   6 C        3.816    -0.080    22.007     6.677
    90   6 C        3.853    -0.016    20.820     6.490
    91   6 C        3.763    -0.124    22.926     6.825
    92   6 C        3.762    -0.125    22.938     6.827
    93   1 H        0.860     0.149     1.406     1.858
    94   1 H        0.860     0.169     1.277     1.771
    95   1 H        0.926     0.037     2.494     2.470
    96   1 H        0.926     0.049     2.330     2.387
    97   1 H        0.927     0.058     2.226     2.333
    98   1 H        0.927     0.037     2.494     2.470
    99   1 H        0.927     0.044     2.392     2.418
   100   1 H        0.927     0.043     2.415     2.430
   101   1 H        0.927     0.045     2.385     2.415
   102   1 H        0.927     0.043     2.411     2.428
   103   1 H        0.927     0.042     2.425     2.435
   104   1 H        0.927     0.038     2.479     2.462
   105   1 H        0.861     0.224     0.990     1.558
   106   1 H        0.927     0.085     1.924     2.169
   107   1 H        0.927     0.105     1.744     2.065
   108   1 H        0.926     0.095     1.827     2.114
   109   1 H        0.861     0.218     1.021     1.582
   110   1 H        0.861     0.240     0.922     1.504
   111   1 H        0.861     0.211     1.051     1.606
   112   1 H        0.927     0.129     1.539     1.940
   113   1 H        0.929     0.070     2.087     2.259
   114   1 H        0.927     0.082     1.956     2.187
   115   1 H        0.927     0.070     2.090     2.261
   116   1 H        0.927     0.068     2.107     2.270
   117   1 H        0.927     0.074     2.039     2.233
   118   1 H        0.927     0.087     1.905     2.158
   119   1 H        0.927     0.095     1.829     2.115
   120   1 H        0.861     0.251     0.880     1.470
   121   1 H        0.861     0.256     0.861     1.454
   122   1 H        0.861     0.250     0.883     1.472
   123   1 H        0.861     0.252     0.876     1.466
   124   1 H        0.860     0.181     1.206     1.720
   125   1 H        0.860     0.168     1.286     1.776
   126   1 H        0.927     0.076     2.022     2.224
   127   1 H        0.929     0.073     2.057     2.243
   128   1 H        0.927     0.053     2.278     2.360
   129   1 H        0.927     0.076     2.024     2.225
   130   1 H        0.927     0.049     2.330     2.387
   131   1 H        0.927     0.082     1.961     2.190
   132   1 H        0.861     0.204     1.084     1.631
   133   1 H        0.861     0.234     0.946     1.523
   134   1 H        0.860     0.176     1.240     1.744
   135   1 H        0.860     0.162     1.322     1.801
   136   1 H        0.927     0.067     2.114     2.274
   137   1 H        0.927     0.051     2.309     2.376
   138   1 H        0.927     0.051     2.309     2.376
   139   1 H        0.927     0.056     2.252     2.346
   140   1 H        0.861     0.233     0.952     1.528
   141   1 H        0.927     0.104     1.752     2.070
   142   1 H        0.929     0.082     1.962     2.190
   143   1 H        0.927     0.073     2.047     2.238
   144   1 H        0.927     0.081     1.968     2.194
   145   1 H        0.927     0.084     1.939     2.178
   146   1 H        0.926     0.085     1.924     2.169
   147   1 H        0.860     0.186     1.182     1.703
   148   1 H        0.860     0.167     1.290     1.779
   149   1 H        0.927     0.088     1.894     2.152
   150   1 H        0.927     0.099     1.795     2.095
   151   1 H        0.926     0.080     1.980     2.201
   152   1 H        0.929     0.075     2.033     2.229
   153   1 H        0.861     0.218     1.018     1.580
   154   1 H        0.926     0.100     1.784     2.089
   155   1 H        0.927     0.058     2.224     2.332
   156   1 H        0.927     0.075     2.029     2.228
   157   1 H        0.927     0.036     2.504     2.474
   158   1 H        0.927     0.036     2.496     2.471
   159   1 H        0.927     0.045     2.386     2.416
   160   1 H        0.927     0.043     2.405     2.425
   161   1 H        0.927     0.042     2.421     2.433
   162   1 H        0.927     0.045     2.385     2.415
   163   1 H        0.927     0.044     2.400     2.422
   164   1 H        0.861     0.245     0.905     1.490
   165   1 H        0.926     0.083     1.950     2.184
   166   1 H        0.927     0.093     1.853     2.129
   167   1 H        0.927     0.104     1.751     2.069
   168   1 H        0.929     0.063     2.160     2.298
   169   1 H        0.861     0.232     0.956     1.532
   170   1 H        0.927     0.084     1.942     2.179
   171   1 H        0.927     0.066     2.133     2.284
   172   1 H        0.927     0.068     2.110     2.272
   173   1 H        0.804     0.304     0.708     1.322
   174   1 H        0.861     0.211     1.051     1.606
   175   1 H        0.927     0.116     1.649     2.008
   176   1 H        0.929     0.074     2.044     2.236
   177   1 H        0.927     0.077     2.013     2.218
   178   1 H        0.926     0.060     2.204     2.322
   179   1 H        0.926     0.038     2.478     2.461
   180   1 H        0.927     0.048     2.349     2.397
   181   1 H        0.927     0.042     2.420     2.432
   182   1 H        0.927     0.051     2.313     2.378
   183   1 H        0.927     0.047     2.363     2.404
   184   1 H        0.927     0.046     2.366     2.405
   185   1 H        0.927     0.043     2.413     2.429
   186   1 H        0.860     0.234     0.948     1.525
   187   1 H        0.858     0.206     1.079     1.627

 Mol. C6AA /au·bohr⁶  :     324297.597553
 Mol. C8AA /au·bohr⁸  :    7207368.003704
 Mol. α(0) /au        :        852.412952


Wiberg/Mayer (AO) data.
largest (>0.10) Wiberg bond orders for each atom

 ---------------------------------------------------------------------------
     #   Z sym  total        # sym  WBO       # sym  WBO       # sym  WBO
 ---------------------------------------------------------------------------
     1   7 N    2.979 --     2 C    1.007    93 H    0.964    94 H    0.945
     2   6 C    3.982 --     1 N    1.007     5 C    0.974    95 H    0.955
                             3 C    0.948
     3   6 C    3.946 --     4 O    1.633     9 N    1.293     2 C    0.948
     4   8 O    1.940 --     3 C    1.633     9 N    0.192
     5   6 C    3.992 --     6 C    0.993    96 H    0.975     2 C    0.974
                            97 H    0.974
     6   6 C    3.996 --     8 C    1.009     7 C    1.006     5 C    0.993
                            98 H    0.961
     7   6 C    3.993 --     6 C    1.006    99 H    0.987   100 H    0.986
                           101 H    0.986
     8   6 C    3.996 --     6 C    1.009   103 H    0.986   102 H    0.986
                           104 H    0.982
     9   7 N    3.457 --     3 C    1.293    10 C    0.976   105 H    0.919
                             4 O    0.192
    10   6 C    3.968 --    13 C    0.982     9 N    0.976    11 C    0.938
                           106 H    0.921
    11   6 C    3.954 --    12 O    1.625    17 N    1.310    10 C    0.938
    12   8 O    1.961 --    11 C    1.625    17 N    0.197
    13   6 C    3.986 --    10 C    0.982    14 C    0.963   108 H    0.960
                           107 H    0.948
    14   6 C    3.951 --    15 O    1.643    16 N    1.318    13 C    0.963
    15   8 O    1.947 --    14 C    1.643    16 N    0.204
    16   7 N    3.408 --    14 C    1.318   110 H    0.922   109 H    0.916
                            15 O    0.204
    17   7 N    3.480 --    11 C    1.310    18 C    0.979   111 H    0.924
                            12 O    0.197
    18   6 C    3.958 --    19 C    0.980    17 N    0.979    21 C    0.963
                           112 H    0.925
    19   6 C    3.905 --    20 O    1.910    18 C    0.980   113 H    0.948
    20   8 O    2.058 --    19 C    1.910
    21   6 C    3.984 --    22 C    1.001   115 H    0.974   114 H    0.969
                            18 C    0.963
    22   6 C    3.990 --    21 C    1.001    23 C    0.995   116 H    0.977
                           117 H    0.972
    23   6 C    3.952 --    22 C    0.995    24 N    0.981   119 H    0.969
                           118 H    0.960
    24   7 N    3.465 --    25 C    1.313    23 C    0.981   186 H    0.918
                            27 N    0.101
    25   6 C    3.977 --    27 N    1.325    24 N    1.313    26 N    1.313
    26   7 N    3.384 --    25 C    1.313   120 H    0.918   121 H    0.916
                            27 N    0.102
    27   7 N    3.402 --    25 C    1.325   123 H    0.918   122 H    0.911
                            26 N    0.102    24 N    0.101
    28   7 N    2.987 --    29 C    1.015   125 H    0.957   124 H    0.949
    29   6 C    3.981 --    28 N    1.015    30 C    0.992   126 H    0.952
                            32 C    0.944
    30   6 C    3.885 --    31 O    1.861    29 C    0.992   127 H    0.950
    31   8 O    2.043 --    30 C    1.861
    32   6 C    3.984 --    33 C    0.992   128 H    0.976   129 H    0.966
                            29 C    0.944
    33   6 C    3.992 --    32 C    0.992   130 H    0.976    34 C    0.970
                           131 H    0.958
    34   6 C    3.947 --    35 O    1.624    36 N    1.326    33 C    0.970
    35   8 O    1.921 --    34 C    1.624    36 N    0.199
    36   7 N    3.421 --    34 C    1.326   132 H    0.936   133 H    0.914
                            35 O    0.199
    37   7 N    2.979 --    38 C    1.014   134 H    0.952   135 H    0.943
    38   6 C    3.977 --    37 N    1.014    41 C    0.979    39 C    0.945
                           136 H    0.935
    39   6 C    3.942 --    40 O    1.581    42 N    1.337    38 C    0.945
    40   8 O    1.951 --    39 C    1.581    42 N    0.194
    41   6 C    3.982 --   137 H    0.982   139 H    0.981   138 H    0.981
                            38 C    0.979
    42   7 N    3.493 --    39 C    1.337    43 C    0.974   140 H    0.892
                            40 O    0.194
    43   6 C    3.951 --    42 N    0.974    44 C    0.968    46 C    0.963
                           141 H    0.945
    44   6 C    3.896 --    45 O    1.919    43 C    0.968   142 H    0.944
    45   8 O    2.056 --    44 C    1.919
    46   6 C    3.979 --    47 C    1.006   143 H    0.972   144 H    0.970
                            43 C    0.963
    47   6 C    3.820 --    46 C    1.006   146 H    0.959   145 H    0.948
                            48 C    0.851
    48   6 C    3.898 --    49 O    1.514    50 O    1.509    47 C    0.851
    49   8 O    1.785 --    48 C    1.514    50 O    0.232
    50   8 O    1.778 --    48 C    1.509    49 O    0.232
    51   7 N    2.982 --    52 C    1.026   148 H    0.949   147 H    0.944
    52   6 C    3.946 --    51 N    1.026   149 H    0.953    55 C    0.933
                            53 C    0.933
    53   6 C    3.946 --    54 O    1.625    61 N    1.317    52 C    0.933
    54   8 O    1.937 --    53 C    1.625    61 N    0.193
    55   6 C    3.955 --    56 C    1.027   151 H    0.950   150 H    0.948
                            52 C    0.933
    56   6 C    3.885 --    58 C    1.481    57 N    1.176    55 C    1.027
                            59 C    0.119
    57   7 N    3.029 --    59 C    1.646    56 C    1.176    60 N    0.118
    58   6 C    3.880 --    56 C    1.481    60 N    1.220   152 H    0.968
                            59 C    0.124
    59   6 C    3.560 --    57 N    1.646    60 N    1.621    58 C    0.124
                            56 C    0.119
    60   7 N    3.030 --    59 C    1.621    58 C    1.220    57 N    0.118
    61   7 N    3.474 --    53 C    1.317    62 C    0.977   153 H    0.900
                            54 O    0.193
    62   6 C    3.947 --    61 N    0.977    65 C    0.974   154 H    0.937
                            63 C    0.924
    63   6 C    3.947 --    64 O    1.630    69 N    1.315    62 C    0.924
    64   8 O    1.952 --    63 C    1.630    69 N    0.191
    65   6 C    3.981 --    66 C    0.987    62 C    0.974   155 H    0.973
                           156 H    0.947
    66   6 C    3.993 --    67 C    1.013    68 C    1.009    65 C    0.987
                           157 H    0.968
    67   6 C    3.995 --    66 C    1.013   160 H    0.985   158 H    0.982
                           159 H    0.978
    68   6 C    3.994 --    66 C    1.009   163 H    0.985   162 H    0.984
                           161 H    0.975
    69   7 N    3.475 --    63 C    1.315    70 C    0.974   164 H    0.881
                            64 O    0.191
    70   6 C    3.954 --    73 C    0.982    69 N    0.974   165 H    0.950
                            71 C    0.919
    71   6 C    3.944 --    72 O    1.635    79 N    1.320    70 C    0.919
    72   8 O    1.951 --    71 C    1.635    79 N    0.203
    73   6 C    3.980 --    74 C    1.017    70 C    0.982   167 H    0.954
                           166 H    0.951
    74   6 C    3.900 --    76 C    1.561    75 N    1.183    73 C    1.017
    75   7 N    3.057 --    77 C    1.687    74 C    1.183
    76   6 C    3.899 --    74 C    1.561    78 N    1.169   168 H    0.969
                            77 C    0.122
    77   6 C    3.244 --    75 N    1.687    78 N    1.328    76 C    0.122
    78   7 N    3.565 --    77 C    1.328    76 C    1.169   187 H    0.901
    79   7 N    3.484 --    71 C    1.320    80 C    0.983   169 H    0.904
                            72 O    0.203
    80   6 C    3.965 --    79 N    0.983    83 C    0.955   170 H    0.948
                            81 C    0.948
    81   6 C    3.954 --    82 O    1.645    85 N    1.298    80 C    0.948
    82   8 O    1.963 --    81 C    1.645    85 N    0.197
    83   6 C    3.954 --    84 O    1.007   172 H    0.969   171 H    0.966
                            80 C    0.955
    84   8 O    1.954 --    83 C    1.007   173 H    0.889
    85   7 N    3.466 --    81 C    1.298    86 C    0.976   174 H    0.925
                            82 O    0.197
    86   6 C    3.959 --    87 C    0.984    85 N    0.976    89 C    0.960
                           175 H    0.928
    87   6 C    3.903 --    88 O    1.902    86 C    0.984   176 H    0.948
    88   8 O    2.048 --    87 C    1.902
    89   6 C    3.983 --    90 C    0.990   178 H    0.973   177 H    0.969
                            86 C    0.960
    90   6 C    3.995 --    92 C    1.010    91 C    1.007    89 C    0.990
                           179 H    0.970
    91   6 C    3.993 --    90 C    1.007   180 H    0.986   181 H    0.986
                           182 H    0.984
    92   6 C    3.995 --    90 C    1.010   183 H    0.986   184 H    0.986
                           185 H    0.983
    93   1 H    0.977 --     1 N    0.964
    94   1 H    0.971 --     1 N    0.945
    95   1 H    0.996 --     2 C    0.955
    96   1 H    0.998 --     5 C    0.975
    97   1 H    0.996 --     5 C    0.974
    98   1 H    0.999 --     6 C    0.961
    99   1 H    0.998 --     7 C    0.987
   100   1 H    0.998 --     7 C    0.986
   101   1 H    0.997 --     7 C    0.986
   102   1 H    0.998 --     8 C    0.986
   103   1 H    0.998 --     8 C    0.986
   104   1 H    0.999 --     8 C    0.982
   105   1 H    0.949 --     9 N    0.919
   106   1 H    0.992 --    10 C    0.921
   107   1 H    0.988 --    13 C    0.948
   108   1 H    0.991 --    13 C    0.960
   109   1 H    0.953 --    16 N    0.916
   110   1 H    0.942 --    16 N    0.922
   111   1 H    0.955 --    17 N    0.924
   112   1 H    0.983 --    18 C    0.925
   113   1 H    0.995 --    19 C    0.948
   114   1 H    0.993 --    21 C    0.969
   115   1 H    0.995 --    21 C    0.974
   116   1 H    0.995 --    22 C    0.977
   117   1 H    0.994 --    22 C    0.972
   118   1 H    0.992 --    23 C    0.960
   119   1 H    0.991 --    23 C    0.969
   120   1 H    0.937 --    26 N    0.918
   121   1 H    0.934 --    26 N    0.916
   122   1 H    0.937 --    27 N    0.911
   123   1 H    0.937 --    27 N    0.918
   124   1 H    0.966 --    28 N    0.949
   125   1 H    0.971 --    28 N    0.957
   126   1 H    0.993 --    29 C    0.952
   127   1 H    0.995 --    30 C    0.950
   128   1 H    0.997 --    32 C    0.976
   129   1 H    0.994 --    32 C    0.966
   130   1 H    0.998 --    33 C    0.976
   131   1 H    0.992 --    33 C    0.958
   132   1 H    0.958 --    36 N    0.936
   133   1 H    0.945 --    36 N    0.914
   134   1 H    0.968 --    37 N    0.952
   135   1 H    0.972 --    37 N    0.943
   136   1 H    0.994 --    38 C    0.935
   137   1 H    0.997 --    41 C    0.982
   138   1 H    0.997 --    41 C    0.981
   139   1 H    0.996 --    41 C    0.981
   140   1 H    0.945 --    42 N    0.892
   141   1 H    0.988 --    43 C    0.945
   142   1 H    0.990 --    44 C    0.944
   143   1 H    0.994 --    46 C    0.972
   144   1 H    0.993 --    46 C    0.970
   145   1 H    0.989 --    47 C    0.948
   146   1 H    0.990 --    47 C    0.959
   147   1 H    0.961 --    51 N    0.944
   148   1 H    0.970 --    51 N    0.949
   149   1 H    0.990 --    52 C    0.953
   150   1 H    0.983 --    55 C    0.948
   151   1 H    0.990 --    55 C    0.950
   152   1 H    0.994 --    58 C    0.968
   153   1 H    0.952 --    61 N    0.900
   154   1 H    0.988 --    62 C    0.937
   155   1 H    0.996 --    65 C    0.973
   156   1 H    0.993 --    65 C    0.947
   157   1 H    0.997 --    66 C    0.968
   158   1 H    0.998 --    67 C    0.982
   159   1 H    0.998 --    67 C    0.978
   160   1 H    0.998 --    67 C    0.985
   161   1 H    0.998 --    68 C    0.975
   162   1 H    0.997 --    68 C    0.984
   163   1 H    0.998 --    68 C    0.985
   164   1 H    0.940 --    69 N    0.881
   165   1 H    0.992 --    70 C    0.950
   166   1 H    0.991 --    73 C    0.951
   167   1 H    0.987 --    73 C    0.954
   168   1 H    0.996 --    76 C    0.969
   169   1 H    0.946 --    79 N    0.904
   170   1 H    0.993 --    80 C    0.948
   171   1 H    0.994 --    83 C    0.966
   172   1 H    0.995 --    83 C    0.969
   173   1 H    0.907 --    84 O    0.889
   174   1 H    0.955 --    85 N    0.925
   175   1 H    0.987 --    86 C    0.928
   176   1 H    0.994 --    87 C    0.948
   177   1 H    0.993 --    89 C    0.969
   178   1 H    0.996 --    89 C    0.973
   179   1 H    0.999 --    90 C    0.970
   180   1 H    0.998 --    91 C    0.986
   181   1 H    0.998 --    91 C    0.986
   182   1 H    0.996 --    91 C    0.984
   183   1 H    0.998 --    92 C    0.986
   184   1 H    0.997 --    92 C    0.986
   185   1 H    0.998 --    92 C    0.983
   186   1 H    0.945 --    24 N    0.918
   187   1 H    0.958 --    78 N    0.901
 ---------------------------------------------------------------------------

Topologies differ in total number of bonds
Writing topology from bond orders to xtbtopo.mol

molecular dipole:
                 x           y           z       tot (Debye)
 q only:      -45.224     -93.272     -10.465
   full:      -44.228     -93.253     -11.293     263.897
molecular quadrupole (traceless):
                xx          xy          yy          xz          yz          zz
 q only:    -2252.520    6420.610    7486.540     568.165    1557.312   -5234.021
  q+dip:    -2311.267    6254.973    7538.118     640.078    1686.474   -5226.851
   full:    -2308.843    6259.250    7536.391     640.625    1684.496   -5227.549


           -------------------------------------------------
          | TOTAL ENERGY             -291.355848960006 Eh   |
          | GRADIENT NORM               0.342066964739 Eh/α |
          | HOMO-LUMO GAP               0.040993599857 eV   |
           -------------------------------------------------
########################################################################
[WARNING] Runtime exception occurred
-2- restart_readRestart: Dimension missmatch in restart file.
-1- restart_readRestart: Number of electron missmatch in restart file.
########################################################################

------------------------------------------------------------------------
 * finished run on 2025/05/05 at 17:14:11.362     
------------------------------------------------------------------------
 total:
 * wall-time:     0 d,  0 h,  0 min,  1.435 sec
 *  cpu-time:     0 d,  0 h,  0 min, 43.274 sec
 * ratio c/w:    30.164 speedup
 SCF:
 * wall-time:     0 d,  0 h,  0 min,  1.417 sec
 *  cpu-time:     0 d,  0 h,  0 min, 42.824 sec
 * ratio c/w:    30.218 speedup

