      -----------------------------------------------------------      
     |                   =====================                   |     
     |                           x T B                           |     
     |                   =====================                   |     
     |                         S. Grimme                         |     
     |          Mulliken Center for Theoretical Chemistry        |     
     |                    University of Bonn                     |     
      -----------------------------------------------------------      

   * xtb version 6.7.1 (edcfbbe) compiled by 'conda@afd1a870197c' on 2025-04-11

   xtb is free software: you can redistribute it and/or modify it under
   the terms of the GNU Lesser General Public License as published by
   the Free Software Foundation, either version 3 of the License, or
   (at your option) any later version.
   
   xtb is distributed in the hope that it will be useful,
   but WITHOUT ANY WARRANTY; without even the implied warranty of
   MERCHANTABILITY or FITNESS FOR A PARTICULAR PURPOSE.  See the
   GNU Lesser General Public License for more details.
   
   Cite this work as:
   * C. Bannwarth, E. Caldeweyher, S. Ehlert, A. Hansen, P. Pracht,
     J. Seibert, S. Spicher, S. Grimme, WIREs Comput. Mol. Sci., 2020, 11,
     e01493. DOI: 10.1002/wcms.1493
   
   for GFN2-xTB:
   * C. Bannwarth, S. Ehlert and S. Grimme., J. Chem. Theory Comput., 2019,
     15, 1652-1671. DOI: 10.1021/acs.jctc.8b01176
   for GFN1-xTB:
   * S. Grimme, C. Bannwarth, P. Shushkov, J. Chem. Theory Comput., 2017,
     13, 1989-2009. DOI: 10.1021/acs.jctc.7b00118
   for GFN0-xTB:
   * P. Pracht, E. Caldeweyher, S. Ehlert, S. Grimme, ChemRxiv, 2019, preprint.
     DOI: 10.26434/chemrxiv.8326202.v1
   for GFN-FF:
   * S. Spicher and S. Grimme, Angew. Chem. Int. Ed., 2020, 59, 15665-15673.
     DOI: 10.1002/anie.202004239
   
   for ALPB and GBSA implicit solvation:
   * S. Ehlert, M. Stahn, S. Spicher, S. Grimme, J. Chem. Theory Comput.,
     2021, 17, 4250-4261. DOI: 10.1021/acs.jctc.1c00471
   
   for ddCOSMO and CPCM-X implicit solvation:
   * M. Stahn, S. Ehlert, S. Grimme, J. Phys. Chem. A,
     2023, XX, XXXX-XXXX. DOI: 10.1021/acs.jpca.3c04382
   
   for DFT-D4:
   * E. Caldeweyher, C. Bannwarth and S. Grimme, J. Chem. Phys., 2017,
     147, 034112. DOI: 10.1063/1.4993215
   * E. Caldeweyher, S. Ehlert, A. Hansen, H. Neugebauer, S. Spicher,
     C. Bannwarth and S. Grimme, J. Chem. Phys., 2019, 150, 154122.
     DOI: 10.1063/1.5090222
   * E. Caldeweyher, J.-M. Mewes, S. Ehlert and S. Grimme, Phys. Chem. Chem. Phys.
     2020, 22, 8499-8512. DOI: 10.1039/D0CP00502A
   
   for sTDA-xTB:
   * S. Grimme and C. Bannwarth, J. Chem. Phys., 2016, 145, 054103.
     DOI: 10.1063/1.4959605
   
   in the mass-spec context:
   * V. Asgeirsson, C. Bauer and S. Grimme, Chem. Sci., 2017, 8, 4879.
     DOI: 10.1039/c7sc00601b
   * J. Koopman and S. Grimme, ACS Omega 2019, 4, 12, 15120-15133.
     DOI: 10.1021/acsomega.9b02011
   
   for metadynamics refer to:
   * S. Grimme, J. Chem. Theory Comput., 2019, 155, 2847-2862
     DOI: 10.1021/acs.jctc.9b00143
   
   for SPH calculations refer to:
   * S. Spicher and S. Grimme, J. Chem. Theory Comput., 2021, 17, 1701-1714
     DOI: 10.1021/acs.jctc.0c01306
   
   for ONIOM refer to:
   * C. Plett, A. Katbashev, S. Ehlert, S. Grimme, M. Bursch,
     Phys. Chem. Chem. Phys., 2023, 25, 17860-17868. DOI: 10.1039/D3CP02178E
   
   for DIPRO refer to:
   * J. Kohn, N. Gildemeister, S. Grimme, D. Fazzi, A. Hansen,
     J. Chem. Phys., 2023, just accepted.
   
   for PTB refer to:
   * S. Grimme, M. Mueller, A. Hansen, J. Chem. Phys., 2023, 158, 124111.
     DOI: 10.1063/5.0137838
   
   with help from (in alphabetical order)
   P. Atkinson, C. Bannwarth, F. Bohle, G. Brandenburg, E. Caldeweyher
   M. Checinski, S. Dohm, S. Ehlert, S. Ehrlich, I. Gerasimov, C. Hölzer
   A. Katbashev, J. Kohn, J. Koopman, C. Lavigne, S. Lehtola, F. März, M. Müller,
   F. Musil, H. Neugebauer, J. Pisarek, C. Plett, P. Pracht, F. Pultar,
   J. Seibert, P. Shushkov, S. Spicher, M. Stahn, M. Steiner, T. Strunk,
   J. Stückrath, T. Rose, and J. Unsleber
   
 * started run on 2025/05/05 at 17:14:08.638     
   ID    Z sym.   atoms
    1    7 N      1, 9, 16, 17, 24, 26-28, 36, 37, 42, 51, 57, 60, 61, 69,
                  75, 78, 79, 85
    2    6 C      2, 3, 5-8, 10, 11, 13, 14, 18, 19, 21-23, 25, 29, 30,
                  32-34, 38, 39, 41, 43, 44, 46-48, 52, 53, 55, 56, 58, 59,
                  62, 63, 65-68, 70, 71, 73, 74, 76, 77, 80, 81, 83, 86, 87,
                  89-92
    3    8 O      4, 12, 15, 20, 31, 35, 40, 45, 49, 50, 54, 64, 72, 82, 84,
                  88
    4    1 H      93-187

           -------------------------------------------------
          |                Calculation Setup                |
           -------------------------------------------------

          program call               : xtb /tmp/tmp60vnks0a/HID/input.xyz --alpb ether --chrg 1 --input /tmp/tmp60vnks0a/HID/constraints.inp --gfn 2
          hostname                   : fedora
          coordinate file            : /tmp/tmp60vnks0a/HID/input.xyz
          omp threads                :                    32


molecular fragmentation (1/2 indicates fragments):
111111111111111111111111111222222222222222222222222222222222222222222222
222222222222222222221111111111111111111111111111111222222222222222222222
2222222222222222222222222222222222222222212
# atoms in fragment 1/2:    59   128
 fragment masses (1/2) :      386.47      918.01
CMA distance (Bohr)    :  16.022
constraining FC (au)   :  0.0500
########################################################################
[WARNING] Please study the warnings concerning your input carefully
-1- readin_getIntValue: could not parse 'S'
########################################################################

           -------------------------------------------------
          |                 G F N 2 - x T B                 |
           -------------------------------------------------

        Reference                      10.1021/acs.jctc.8b01176
      * Hamiltonian:
        H0-scaling (s, p, d)           1.850000    2.230000    2.230000
        zeta-weighting                 0.500000
      * Dispersion:
        s8                             2.700000
        a1                             0.520000
        a2                             5.000000
        s9                             5.000000
      * Repulsion:
        kExp                           1.500000    1.000000
        rExp                           1.000000
      * Coulomb:
        alpha                          2.000000
        third order                    shell-resolved
        anisotropic                    true
        a3                             3.000000
        a5                             4.000000
        cn-shift                       1.200000
        cn-exp                         4.000000
        max-rad                        5.000000

      * Solvation model:               ALPB
        Solvent                        ether
        Parameter file                 internal GFN2-xTB/ALPB
        Dielectric constant                4.3300E+00
        Reference state                gsolv [1 M gas/solution]
        Free energy shift                  4.9534E-03 Eh       3.1083E+00 kcal/mol
        Temperature                        2.9815E+02 K
        Density                            7.1300E-01 kg/L
        Solvent mass                       7.4120E+01 g/mol
        Interaction kernel             P16
        Born radius scaling (c1)           1.5847E+00
        Born radii integrator          GBOBC
        Born offset                        0.0000E+00 a0       0.0000E+00 AA
        H-bond correction              true
        Ion screening                  false
        Surface tension                    1.0000E-05 Eh       1.5569E+01 dyn/cm
        Grid points                               230 per atom

          ...................................................
          :                      SETUP                      :
          :.................................................:
          :  # basis functions                 463          :
          :  # atomic orbitals                 463          :
          :  # shells                          279          :
          :  # electrons                       514          :
          :  max. iterations                   250          :
          :  Hamiltonian                  GFN2-xTB          :
          :  restarted?                      false          :
          :  GBSA solvation                   true          :
          :  PC potential                    false          :
          :  electronic temp.          300.0000000     K    :
          :  accuracy                    1.0000000          :
          :  -> integral cutoff          0.2500000E+02      :
          :  -> integral neglect         0.1000000E-07      :
          :  -> SCF convergence          0.1000000E-05 Eh   :
          :  -> wf. convergence          0.1000000E-03 e    :
          :  Broyden damping             0.4000000          :
          :  net charge                          1          :
          :  unpaired electrons                  0          :
          ...................................................

 iter      E             dE          RMSdq      gap      omega  full diag
   1   -292.4820079 -0.292482E+03  0.473E+00    0.10       0.0  T
   2   -290.5395784  0.194243E+01  0.414E+00    0.50       1.0  T
   3   -293.0770016 -0.253742E+01  0.290E+00    0.48       1.0  T
   4   -293.6363665 -0.559365E+00  0.228E+00    0.04       1.0  T
   5   -294.0959379 -0.459571E+00  0.203E+00    0.22       1.0  T
   6   -293.2987347  0.797203E+00  0.241E+00    0.54       1.0  T
   7   -294.5439752 -0.124524E+01  0.154E+00    0.33       1.0  T
   8   -294.4356527  0.108322E+00  0.146E+00    0.23       1.0  T
   9   -294.2042783  0.231374E+00  0.171E+00    0.01       1.0  T
  10   -294.8908545 -0.686576E+00  0.109E+00    0.36       1.0  T
  11   -294.9362896 -0.454351E-01  0.962E-01    0.30       1.0  T
  12   -295.0069837 -0.706941E-01  0.651E-01    0.04       1.0  T
  13   -294.9911531  0.158306E-01  0.694E-01    0.09       1.0  T
  14   -293.8519812  0.113917E+01  0.218E+00    0.10       1.0  T
  15   -294.9272054 -0.107522E+01  0.756E-01    0.00       1.0  T
  16   -294.9561271 -0.289217E-01  0.701E-01    0.18       1.0  T
  17   -295.0451362 -0.890090E-01  0.342E-01    0.06       1.0  T
  18   -295.0232404  0.218958E-01  0.430E-01    0.08       1.0  T
  19   -295.0276659 -0.442555E-02  0.414E-01    0.08       1.0  T
  20   -295.0284577 -0.791773E-03  0.434E-01    0.04       1.0  T
  21   -295.0202750  0.818269E-02  0.444E-01    0.05       1.0  T
  22   -295.0328310 -0.125560E-01  0.396E-01    0.07       1.0  T
  23   -294.9359008  0.969302E-01  0.685E-01    0.04       1.0  T
  24   -295.0467403 -0.110840E+00  0.330E-01    0.06       1.0  T
  25   -294.9065868  0.140153E+00  0.738E-01    0.04       1.0  T
  26   -295.0151766 -0.108590E+00  0.473E-01    0.00       1.0  T
  27   -295.0573206 -0.421440E-01  0.271E-01    0.01       1.0  T
  28   -295.0645364 -0.721572E-02  0.215E-01    0.02       1.0  T
  29   -295.0757773 -0.112410E-01  0.134E-01    0.03       1.0  T
  30   -295.0813844 -0.560709E-02  0.493E-02    0.04       1.0  T
  31   -295.0817735 -0.389088E-03  0.390E-02    0.04       1.0  T
  32   -295.0817333  0.402259E-04  0.371E-02    0.05       1.0  T
  33   -295.0820752 -0.341920E-03  0.206E-02    0.05       1.0  T
  34   -295.0819296  0.145616E-03  0.294E-02    0.05       1.0  T
  35   -295.0821624 -0.232825E-03  0.126E-02    0.05       1.0  T
  36   -295.0821957 -0.332838E-04  0.734E-03    0.04       1.0  T
  37   -295.0822104 -0.146878E-04  0.317E-03    0.04       2.3  T
  38   -295.0822127 -0.237011E-05  0.175E-03    0.04       4.2  T
  39   -295.0822136 -0.839139E-06  0.691E-04    0.04      10.6  T
  40   -295.0822137 -0.963469E-07  0.365E-04    0.04      20.0  T

   *** convergence criteria satisfied after 40 iterations ***

         #    Occupation            Energy/Eh            Energy/eV
      -------------------------------------------------------------
         1        2.0000           -0.7702475             -20.9595
       ...           ...                  ...                  ...
       251        1.9801           -0.4023141             -10.9475
       252        1.9539           -0.4015017             -10.9254
       253        1.9437           -0.4013073             -10.9201
       254        1.9358           -0.4011782             -10.9166
       255        1.8804           -0.4005593             -10.8998
       256        1.7445           -0.3997668             -10.8782
       257        1.5468           -0.3991079             -10.8603 (HOMO)
       258        0.7781           -0.3975130             -10.8169 (LUMO)
       259        0.2378           -0.3960387             -10.7768
       260                         -0.3191039              -8.6833
       261                         -0.3147184              -8.5639
       262                         -0.3016945              -8.2095
       ...                                ...                  ...
       463                          0.6765821              18.4107
      -------------------------------------------------------------
                  HL-Gap            0.0015949 Eh            0.0434 eV
             Fermi-level           -0.3979417 Eh          -10.8285 eV

 SCC (total)                   0 d,  0 h,  0 min,  1.252 sec
 SCC setup                      ...        0 min,  0.002 sec (  0.198%)
 Dispersion                     ...        0 min,  0.006 sec (  0.454%)
 classical contributions        ...        0 min,  0.000 sec (  0.030%)
 integral evaluation            ...        0 min,  0.012 sec (  0.965%)
 iterations                     ...        0 min,  1.196 sec ( 95.594%)
 molecular gradient             ...        0 min,  0.033 sec (  2.615%)
 printout                       ...        0 min,  0.002 sec (  0.142%)

         :::::::::::::::::::::::::::::::::::::::::::::::::::::
         ::                     SUMMARY                     ::
         :::::::::::::::::::::::::::::::::::::::::::::::::::::
         :: total energy            -291.356695193729 Eh    ::
         :: total w/o Gsasa/hb      -291.267799915037 Eh    ::
         :: gradient norm              0.342978809046 Eh/a0 ::
         :: HOMO-LUMO gap              0.043400329549 eV    ::
         ::.................................................::
         :: SCC energy              -295.070087539487 Eh    ::
         :: -> isotropic ES            0.825184821603 Eh    ::
         :: -> anisotropic ES         -0.003785522697 Eh    ::
         :: -> anisotropic XC          0.103894080440 Eh    ::
         :: -> dispersion             -0.210513840045 Eh    ::
         :: -> Gsolv                  -0.242848152789 Eh    ::
         ::    -> Gelec               -0.153952874098 Eh    ::
         ::    -> Gsasa               -0.073779106748 Eh    ::
         ::    -> Ghb                 -0.020069609521 Eh    ::
         ::    -> Gshift               0.004953437577 Eh    ::
         :: repulsion energy           3.713392345758 Eh    ::
         :: add. restraining           0.000000000000 Eh    ::
         :: total charge               1.000000000264 e     ::
         :::::::::::::::::::::::::::::::::::::::::::::::::::::

           -------------------------------------------------
          |                Property Printout                |
           -------------------------------------------------

    * Orbital Energies and Occupations

         #    Occupation            Energy/Eh            Energy/eV
      -------------------------------------------------------------
         1        2.0000           -0.7702475             -20.9595
       ...           ...                  ...                  ...
       245        2.0000           -0.4137925             -11.2599
       246        2.0000           -0.4133557             -11.2480
       247        2.0000           -0.4116004             -11.2002
       248        2.0000           -0.4091915             -11.1347
       249        2.0000           -0.4081891             -11.1074
       250        1.9989           -0.4050569             -11.0222
       251        1.9801           -0.4023141             -10.9475
       252        1.9539           -0.4015017             -10.9254
       253        1.9437           -0.4013073             -10.9201
       254        1.9358           -0.4011782             -10.9166
       255        1.8804           -0.4005593             -10.8998
       256        1.7445           -0.3997668             -10.8782
       257        1.5468           -0.3991079             -10.8603 (HOMO)
       258        0.7781           -0.3975130             -10.8169 (LUMO)
       259        0.2378           -0.3960387             -10.7768
       260                         -0.3191039              -8.6833
       261                         -0.3147184              -8.5639
       262                         -0.3016945              -8.2095
       263                         -0.2896689              -7.8823
       264                         -0.2610039              -7.1023
       265                         -0.2504129              -6.8141
       266                         -0.2500613              -6.8045
       267                         -0.2429724              -6.6116
       268                         -0.2388407              -6.4992
       ...                                ...                  ...
       463                          0.6765821              18.4107
      -------------------------------------------------------------
                  HL-Gap            0.0015949 Eh            0.0434 eV
             Fermi-level           -0.3979417 Eh          -10.8285 eV

     #   Z          covCN         q      C6AA      α(0)
     1   7 N        2.630    -0.362    29.345     8.045
     2   6 C        3.788     0.027    20.125     6.389
     3   6 C        2.757     0.261    22.605     7.786
     4   8 O        0.859    -0.492    23.617     6.516
     5   6 C        3.814    -0.076    21.948     6.668
     6   6 C        3.853    -0.014    20.798     6.486
     7   6 C        3.760    -0.123    22.898     6.822
     8   6 C        3.761    -0.119    22.821     6.810
     9   7 N        2.688    -0.179    24.874     7.407
    10   6 C        3.802     0.012    20.371     6.426
    11   6 C        2.758     0.275    22.355     7.743
    12   8 O        0.859    -0.476    23.255     6.466
    13   6 C        3.815    -0.111    22.611     6.768
    14   6 C        2.744     0.284    22.191     7.713
    15   8 O        0.859    -0.499    23.754     6.534
    16   7 N        2.640    -0.280    27.224     7.749
    17   7 N        2.689    -0.167    24.623     7.370
    18   6 C        3.796     0.020    20.248     6.407
    19   6 C        2.764     0.198    23.777     7.986
    20   8 O        0.856    -0.349    20.695     6.099
    21   6 C        3.812    -0.080    22.023     6.680
    22   6 C        3.807    -0.090    22.218     6.710
    23   6 C        3.746    -0.033    21.238     6.574
    24   7 N        2.701    -0.144    24.119     7.294
    25   6 C        2.737     0.237    23.045     7.860
    26   7 N        2.656    -0.269    26.964     7.712
    27   7 N        2.655    -0.252    26.550     7.653
    28   7 N        2.629    -0.350    29.025     8.001
    29   6 C        3.784     0.032    20.058     6.379
    30   6 C        2.763     0.204    23.672     7.968
    31   8 O        0.856    -0.377    21.223     6.177
    32   6 C        3.809    -0.065    21.739     6.637
    33   6 C        3.809    -0.099    22.380     6.734
    34   6 C        2.743     0.282    22.222     7.719
    35   8 O        0.859    -0.502    23.830     6.545
    36   7 N        2.639    -0.263    26.831     7.693
    37   7 N        2.632    -0.360    29.272     8.035
    38   6 C        3.788     0.025    20.172     6.397
    39   6 C        2.756     0.263    22.560     7.778
    40   8 O        0.859    -0.503    23.855     6.548
    41   6 C        3.762    -0.122    22.887     6.820
    42   7 N        2.689    -0.165    24.578     7.363
    43   6 C        3.794     0.029    20.095     6.384
    44   6 C        2.765     0.202    23.695     7.972
    45   8 O        0.856    -0.336    20.450     6.063
    46   6 C        3.812    -0.069    21.813     6.648
    47   6 C        3.807    -0.075    21.933     6.667
    48   6 C        2.689     0.381    20.551     7.419
    49   8 O        0.857    -0.510    24.006     6.569
    50   8 O        0.857    -0.514    24.091     6.581
    51   7 N        2.629    -0.325    28.375     7.911
    52   6 C        3.789     0.023    20.200     6.401
    53   6 C        2.759     0.272    22.412     7.753
    54   8 O        0.860    -0.471    23.160     6.452
    55   6 C        3.814    -0.074    21.907     6.662
    56   6 C        3.089     0.064    26.469     8.433
    57   7 N        1.990    -0.240    27.072     7.717
    58   6 C        3.059     0.005    27.860     8.656
    59   6 C        2.110     0.172    26.747     8.357
    60   7 N        1.980    -0.231    26.867     7.687
    61   7 N        2.691    -0.160    24.459     7.345
    62   6 C        3.804     0.011    20.393     6.429
    63   6 C        2.763     0.277    22.321     7.737
    64   8 O        0.864    -0.477    23.267     6.467
    65   6 C        3.827    -0.082    22.045     6.681
    66   6 C        3.857    -0.011    20.740     6.477
    67   6 C        3.767    -0.122    22.885     6.818
    68   6 C        3.768    -0.120    22.832     6.810
    69   7 N        2.696    -0.178    24.850     7.404
    70   6 C        3.805     0.024    20.170     6.394
    71   6 C        2.758     0.268    22.482     7.765
    72   8 O        0.859    -0.470    23.120     6.447
    73   6 C        3.813    -0.083    22.068     6.686
    74   6 C        3.087     0.034    27.136     8.539
    75   7 N        2.846    -0.063    22.449     7.037
    76   6 C        3.057     0.008    27.794     8.646
    77   6 C        2.107     0.052    29.536     8.782
    78   7 N        1.979    -0.210    26.378     7.617
    79   7 N        2.690    -0.156    24.384     7.334
    80   6 C        3.798     0.010    20.414     6.433
    81   6 C        2.756     0.269    22.456     7.760
    82   8 O        0.859    -0.476    23.249     6.465
    83   6 C        3.682     0.068    19.635     6.345
    84   8 O        1.654    -0.449    21.834     6.308
    85   7 N        2.691    -0.171    24.710     7.383
    86   6 C        3.794     0.025    20.156     6.393
    87   6 C        2.766     0.198    23.788     7.987
    88   8 O        0.856    -0.355    20.804     6.115
    89   6 C        3.816    -0.080    22.006     6.677
    90   6 C        3.853    -0.016    20.819     6.490
    91   6 C        3.763    -0.124    22.926     6.825
    92   6 C        3.762    -0.125    22.938     6.827
    93   1 H        0.860     0.155     1.366     1.831
    94   1 H        0.860     0.174     1.249     1.751
    95   1 H        0.926     0.041     2.431     2.438
    96   1 H        0.926     0.051     2.311     2.377
    97   1 H        0.927     0.059     2.215     2.327
    98   1 H        0.927     0.037     2.492     2.469
    99   1 H        0.927     0.044     2.391     2.418
   100   1 H        0.927     0.043     2.413     2.429
   101   1 H        0.927     0.045     2.388     2.416
   102   1 H        0.927     0.043     2.409     2.427
   103   1 H        0.927     0.042     2.426     2.436
   104   1 H        0.927     0.038     2.475     2.460
   105   1 H        0.861     0.220     1.008     1.573
   106   1 H        0.927     0.103     1.758     2.073
   107   1 H        0.927     0.103     1.761     2.075
   108   1 H        0.926     0.091     1.865     2.136
   109   1 H        0.861     0.222     1.001     1.568
   110   1 H        0.861     0.237     0.934     1.514
   111   1 H        0.861     0.208     1.065     1.617
   112   1 H        0.927     0.128     1.551     1.947
   113   1 H        0.929     0.069     2.099     2.265
   114   1 H        0.927     0.081     1.971     2.196
   115   1 H        0.927     0.069     2.098     2.265
   116   1 H        0.927     0.068     2.103     2.268
   117   1 H        0.927     0.074     2.044     2.236
   118   1 H        0.927     0.087     1.909     2.161
   119   1 H        0.927     0.095     1.831     2.116
   120   1 H        0.861     0.251     0.881     1.470
   121   1 H        0.861     0.255     0.863     1.455
   122   1 H        0.861     0.250     0.883     1.472
   123   1 H        0.861     0.252     0.877     1.467
   124   1 H        0.860     0.184     1.194     1.711
   125   1 H        0.860     0.170     1.276     1.769
   126   1 H        0.927     0.078     2.000     2.211
   127   1 H        0.929     0.073     2.056     2.242
   128   1 H        0.927     0.054     2.274     2.358
   129   1 H        0.927     0.076     2.016     2.221
   130   1 H        0.927     0.049     2.337     2.391
   131   1 H        0.927     0.082     1.961     2.190
   132   1 H        0.861     0.202     1.095     1.639
   133   1 H        0.861     0.238     0.933     1.513
   134   1 H        0.860     0.178     1.227     1.735
   135   1 H        0.860     0.163     1.317     1.798
   136   1 H        0.927     0.069     2.099     2.265
   137   1 H        0.927     0.050     2.320     2.382
   138   1 H        0.927     0.052     2.299     2.371
   139   1 H        0.927     0.064     2.155     2.296
   140   1 H        0.861     0.234     0.948     1.525
   141   1 H        0.927     0.088     1.900     2.156
   142   1 H        0.929     0.081     1.966     2.193
   143   1 H        0.927     0.072     2.068     2.249
   144   1 H        0.927     0.081     1.964     2.191
   145   1 H        0.927     0.081     1.973     2.197
   146   1 H        0.926     0.072     2.060     2.244
   147   1 H        0.860     0.185     1.185     1.705
   148   1 H        0.860     0.167     1.294     1.782
   149   1 H        0.927     0.088     1.894     2.152
   150   1 H        0.927     0.099     1.791     2.093
   151   1 H        0.926     0.080     1.975     2.198
   152   1 H        0.929     0.075     2.028     2.227
   153   1 H        0.861     0.218     1.017     1.580
   154   1 H        0.926     0.101     1.777     2.085
   155   1 H        0.927     0.060     2.200     2.320
   156   1 H        0.927     0.076     2.025     2.225
   157   1 H        0.927     0.037     2.492     2.468
   158   1 H        0.927     0.036     2.498     2.471
   159   1 H        0.927     0.045     2.387     2.416
   160   1 H        0.927     0.044     2.400     2.422
   161   1 H        0.927     0.042     2.425     2.435
   162   1 H        0.927     0.045     2.381     2.413
   163   1 H        0.927     0.045     2.378     2.411
   164   1 H        0.861     0.244     0.908     1.492
   165   1 H        0.926     0.084     1.935     2.175
   166   1 H        0.927     0.092     1.859     2.132
   167   1 H        0.927     0.097     1.811     2.104
   168   1 H        0.929     0.064     2.148     2.292
   169   1 H        0.861     0.232     0.957     1.532
   170   1 H        0.927     0.083     1.947     2.182
   171   1 H        0.927     0.065     2.143     2.289
   172   1 H        0.927     0.067     2.115     2.274
   173   1 H        0.804     0.304     0.708     1.322
   174   1 H        0.861     0.211     1.053     1.607
   175   1 H        0.927     0.116     1.648     2.007
   176   1 H        0.929     0.074     2.045     2.236
   177   1 H        0.927     0.077     2.012     2.218
   178   1 H        0.926     0.059     2.206     2.323
   179   1 H        0.926     0.038     2.480     2.463
   180   1 H        0.927     0.048     2.348     2.396
   181   1 H        0.927     0.042     2.421     2.433
   182   1 H        0.927     0.051     2.313     2.378
   183   1 H        0.927     0.047     2.362     2.404
   184   1 H        0.927     0.046     2.366     2.405
   185   1 H        0.927     0.043     2.412     2.428
   186   1 H        0.860     0.234     0.948     1.526
   187   1 H        0.858     0.206     1.078     1.627

 Mol. C6AA /au·bohr⁶  :     324270.076844
 Mol. C8AA /au·bohr⁸  :    7206832.670960
 Mol. α(0) /au        :        852.365611


Wiberg/Mayer (AO) data.
largest (>0.10) Wiberg bond orders for each atom

 ---------------------------------------------------------------------------
     #   Z sym  total        # sym  WBO       # sym  WBO       # sym  WBO
 ---------------------------------------------------------------------------
     1   7 N    2.970 --     2 C    1.008    93 H    0.962    94 H    0.942
     2   6 C    3.976 --     1 N    1.008     5 C    0.975    95 H    0.950
                             3 C    0.945
     3   6 C    3.947 --     4 O    1.639     9 N    1.294     2 C    0.945
     4   8 O    1.948 --     3 C    1.639     9 N    0.195
     5   6 C    3.990 --     6 C    0.993     2 C    0.975    96 H    0.975
                            97 H    0.973
     6   6 C    3.995 --     8 C    1.009     7 C    1.006     5 C    0.993
                            98 H    0.960
     7   6 C    3.993 --     6 C    1.006    99 H    0.987   100 H    0.986
                           101 H    0.986
     8   6 C    3.995 --     6 C    1.009   103 H    0.986   102 H    0.986
                           104 H    0.981
     9   7 N    3.459 --     3 C    1.294    10 C    0.975   105 H    0.921
                             4 O    0.195
    10   6 C    3.964 --    13 C    0.983     9 N    0.975    11 C    0.937
                           106 H    0.930
    11   6 C    3.953 --    12 O    1.642    17 N    1.295    10 C    0.937
    12   8 O    1.967 --    11 C    1.642    17 N    0.196
    13   6 C    3.987 --    10 C    0.983    14 C    0.964   108 H    0.961
                           107 H    0.948
    14   6 C    3.950 --    15 O    1.638    16 N    1.322    13 C    0.964
    15   8 O    1.940 --    14 C    1.638    16 N    0.203
    16   7 N    3.411 --    14 C    1.322   110 H    0.923   109 H    0.914
                            15 O    0.203
    17   7 N    3.466 --    11 C    1.295    18 C    0.981   111 H    0.925
                            12 O    0.196
    18   6 C    3.960 --    19 C    0.981    17 N    0.981    21 C    0.963
                           112 H    0.925
    19   6 C    3.903 --    20 O    1.907    18 C    0.981   113 H    0.948
    20   8 O    2.054 --    19 C    1.907
    21   6 C    3.985 --    22 C    1.001   115 H    0.974   114 H    0.969
                            18 C    0.963
    22   6 C    3.990 --    21 C    1.001    23 C    0.995   116 H    0.977
                           117 H    0.972
    23   6 C    3.952 --    22 C    0.995    24 N    0.981   119 H    0.969
                           118 H    0.960
    24   7 N    3.466 --    25 C    1.314    23 C    0.981   186 H    0.918
                            27 N    0.101
    25   6 C    3.977 --    27 N    1.325    24 N    1.314    26 N    1.312
    26   7 N    3.384 --    25 C    1.312   120 H    0.919   121 H    0.916
                            27 N    0.101
    27   7 N    3.402 --    25 C    1.325   123 H    0.918   122 H    0.911
                            26 N    0.101    24 N    0.101
    28   7 N    2.984 --    29 C    1.016   125 H    0.956   124 H    0.949
    29   6 C    3.980 --    28 N    1.016    30 C    0.993   126 H    0.952
                            32 C    0.943
    30   6 C    3.885 --    31 O    1.859    29 C    0.993   127 H    0.950
    31   8 O    2.041 --    30 C    1.859
    32   6 C    3.982 --    33 C    0.992   128 H    0.976   129 H    0.966
                            29 C    0.943
    33   6 C    3.992 --    32 C    0.992   130 H    0.976    34 C    0.969
                           131 H    0.958
    34   6 C    3.947 --    35 O    1.625    36 N    1.327    33 C    0.969
    35   8 O    1.922 --    34 C    1.625    36 N    0.200
    36   7 N    3.422 --    34 C    1.327   132 H    0.937   133 H    0.912
                            35 O    0.200
    37   7 N    2.977 --    38 C    1.014   134 H    0.951   135 H    0.943
    38   6 C    3.975 --    37 N    1.014    41 C    0.977    39 C    0.946
                           136 H    0.934
    39   6 C    3.942 --    40 O    1.582    42 N    1.333    38 C    0.946
    40   8 O    1.951 --    39 C    1.582    42 N    0.192
    41   6 C    3.978 --   137 H    0.982   138 H    0.980   139 H    0.979
                            38 C    0.977
    42   7 N    3.488 --    39 C    1.333    43 C    0.973   140 H    0.891
                            40 O    0.192
    43   6 C    3.959 --    42 N    0.973    44 C    0.970    46 C    0.964
                           141 H    0.946
    44   6 C    3.898 --    45 O    1.918    43 C    0.970   142 H    0.946
    45   8 O    2.056 --    44 C    1.918
    46   6 C    3.980 --    47 C    1.006   143 H    0.972   144 H    0.969
                            43 C    0.964
    47   6 C    3.837 --    46 C    1.006   146 H    0.963   145 H    0.951
                            48 C    0.861
    48   6 C    3.904 --    49 O    1.513    50 O    1.508    47 C    0.861
    49   8 O    1.781 --    48 C    1.513    50 O    0.230
    50   8 O    1.776 --    48 C    1.508    49 O    0.230
    51   7 N    2.983 --    52 C    1.026   148 H    0.949   147 H    0.945
    52   6 C    3.946 --    51 N    1.026   149 H    0.953    55 C    0.933
                            53 C    0.933
    53   6 C    3.946 --    54 O    1.626    61 N    1.316    52 C    0.933
    54   8 O    1.936 --    53 C    1.626    61 N    0.192
    55   6 C    3.956 --    56 C    1.027   151 H    0.950   150 H    0.948
                            52 C    0.933
    56   6 C    3.885 --    58 C    1.481    57 N    1.176    55 C    1.027
                            59 C    0.119
    57   7 N    3.030 --    59 C    1.647    56 C    1.176    60 N    0.119
    58   6 C    3.881 --    56 C    1.481    60 N    1.220   152 H    0.968
                            59 C    0.124
    59   6 C    3.563 --    57 N    1.647    60 N    1.622    58 C    0.124
                            56 C    0.119
    60   7 N    3.031 --    59 C    1.622    58 C    1.220    57 N    0.119
    61   7 N    3.472 --    53 C    1.316    62 C    0.977   153 H    0.900
                            54 O    0.192
    62   6 C    3.944 --    61 N    0.977    65 C    0.974   154 H    0.937
                            63 C    0.922
    63   6 C    3.946 --    64 O    1.631    69 N    1.314    62 C    0.922
    64   8 O    1.953 --    63 C    1.631    69 N    0.192
    65   6 C    3.979 --    66 C    0.986    62 C    0.974   155 H    0.973
                           156 H    0.946
    66   6 C    3.992 --    67 C    1.013    68 C    1.009    65 C    0.986
                           157 H    0.968
    67   6 C    3.994 --    66 C    1.013   160 H    0.984   158 H    0.982
                           159 H    0.978
    68   6 C    3.994 --    66 C    1.009   163 H    0.985   162 H    0.984
                           161 H    0.975
    69   7 N    3.471 --    63 C    1.314    70 C    0.973   164 H    0.881
                            64 O    0.192
    70   6 C    3.958 --    73 C    0.984    69 N    0.973   165 H    0.950
                            71 C    0.923
    71   6 C    3.947 --    72 O    1.632    79 N    1.321    70 C    0.923
    72   8 O    1.946 --    71 C    1.632    79 N    0.204
    73   6 C    3.984 --    74 C    1.017    70 C    0.984   167 H    0.954
                           166 H    0.952
    74   6 C    3.905 --    76 C    1.561    75 N    1.153    73 C    1.017
                            77 C    0.112
    75   7 N    3.553 --    77 C    1.316    74 C    1.153   187 H    0.920
    76   6 C    3.895 --    74 C    1.561    78 N    1.206   168 H    0.968
    77   6 C    3.238 --    78 N    1.701    75 N    1.316    74 C    0.112
    78   7 N    3.073 --    77 C    1.701    76 C    1.206
    79   7 N    3.487 --    71 C    1.321    80 C    0.983   169 H    0.904
                            72 O    0.204
    80   6 C    3.966 --    79 N    0.983    83 C    0.955   170 H    0.948
                            81 C    0.948
    81   6 C    3.955 --    82 O    1.645    85 N    1.298    80 C    0.948
    82   8 O    1.964 --    81 C    1.645    85 N    0.197
    83   6 C    3.955 --    84 O    1.007   172 H    0.969   171 H    0.967
                            80 C    0.955
    84   8 O    1.954 --    83 C    1.007   173 H    0.889
    85   7 N    3.466 --    81 C    1.298    86 C    0.976   174 H    0.925
                            82 O    0.197
    86   6 C    3.959 --    87 C    0.984    85 N    0.976    89 C    0.960
                           175 H    0.928
    87   6 C    3.903 --    88 O    1.902    86 C    0.984   176 H    0.948
    88   8 O    2.048 --    87 C    1.902
    89   6 C    3.983 --    90 C    0.990   178 H    0.973   177 H    0.969
                            86 C    0.960
    90   6 C    3.996 --    92 C    1.010    91 C    1.007    89 C    0.990
                           179 H    0.970
    91   6 C    3.993 --    90 C    1.007   180 H    0.986   181 H    0.986
                           182 H    0.984
    92   6 C    3.995 --    90 C    1.010   183 H    0.986   184 H    0.986
                           185 H    0.983
    93   1 H    0.975 --     1 N    0.962
    94   1 H    0.968 --     1 N    0.942
    95   1 H    0.988 --     2 C    0.950
    96   1 H    0.997 --     5 C    0.975
    97   1 H    0.996 --     5 C    0.973
    98   1 H    0.998 --     6 C    0.960
    99   1 H    0.998 --     7 C    0.987
   100   1 H    0.998 --     7 C    0.986
   101   1 H    0.997 --     7 C    0.986
   102   1 H    0.998 --     8 C    0.986
   103   1 H    0.998 --     8 C    0.986
   104   1 H    0.998 --     8 C    0.981
   105   1 H    0.951 --     9 N    0.921
   106   1 H    0.989 --    10 C    0.930
   107   1 H    0.989 --    13 C    0.948
   108   1 H    0.992 --    13 C    0.961
   109   1 H    0.951 --    16 N    0.914
   110   1 H    0.944 --    16 N    0.923
   111   1 H    0.957 --    17 N    0.925
   112   1 H    0.984 --    18 C    0.925
   113   1 H    0.995 --    19 C    0.948
   114   1 H    0.993 --    21 C    0.969
   115   1 H    0.995 --    21 C    0.974
   116   1 H    0.995 --    22 C    0.977
   117   1 H    0.995 --    22 C    0.972
   118   1 H    0.992 --    23 C    0.960
   119   1 H    0.991 --    23 C    0.969
   120   1 H    0.937 --    26 N    0.919
   121   1 H    0.935 --    26 N    0.916
   122   1 H    0.937 --    27 N    0.911
   123   1 H    0.937 --    27 N    0.918
   124   1 H    0.965 --    28 N    0.949
   125   1 H    0.970 --    28 N    0.956
   126   1 H    0.993 --    29 C    0.952
   127   1 H    0.995 --    30 C    0.950
   128   1 H    0.997 --    32 C    0.976
   129   1 H    0.994 --    32 C    0.966
   130   1 H    0.998 --    33 C    0.976
   131   1 H    0.992 --    33 C    0.958
   132   1 H    0.959 --    36 N    0.937
   133   1 H    0.943 --    36 N    0.912
   134   1 H    0.967 --    37 N    0.951
   135   1 H    0.972 --    37 N    0.943
   136   1 H    0.993 --    38 C    0.934
   137   1 H    0.997 --    41 C    0.982
   138   1 H    0.997 --    41 C    0.980
   139   1 H    0.994 --    41 C    0.979
   140   1 H    0.945 --    42 N    0.891
   141   1 H    0.992 --    43 C    0.946
   142   1 H    0.991 --    44 C    0.946
   143   1 H    0.994 --    46 C    0.972
   144   1 H    0.993 --    46 C    0.969
   145   1 H    0.990 --    47 C    0.951
   146   1 H    0.992 --    47 C    0.963
   147   1 H    0.961 --    51 N    0.945
   148   1 H    0.970 --    51 N    0.949
   149   1 H    0.990 --    52 C    0.953
   150   1 H    0.983 --    55 C    0.948
   151   1 H    0.990 --    55 C    0.950
   152   1 H    0.994 --    58 C    0.968
   153   1 H    0.952 --    61 N    0.900
   154   1 H    0.988 --    62 C    0.937
   155   1 H    0.996 --    65 C    0.973
   156   1 H    0.993 --    65 C    0.946
   157   1 H    0.996 --    66 C    0.968
   158   1 H    0.998 --    67 C    0.982
   159   1 H    0.998 --    67 C    0.978
   160   1 H    0.998 --    67 C    0.984
   161   1 H    0.998 --    68 C    0.975
   162   1 H    0.997 --    68 C    0.984
   163   1 H    0.998 --    68 C    0.985
   164   1 H    0.940 --    69 N    0.881
   165   1 H    0.992 --    70 C    0.950
   166   1 H    0.991 --    73 C    0.952
   167   1 H    0.988 --    73 C    0.954
   168   1 H    0.995 --    76 C    0.968
   169   1 H    0.946 --    79 N    0.904
   170   1 H    0.993 --    80 C    0.948
   171   1 H    0.994 --    83 C    0.967
   172   1 H    0.995 --    83 C    0.969
   173   1 H    0.907 --    84 O    0.889
   174   1 H    0.956 --    85 N    0.925
   175   1 H    0.987 --    86 C    0.928
   176   1 H    0.994 --    87 C    0.948
   177   1 H    0.993 --    89 C    0.969
   178   1 H    0.996 --    89 C    0.973
   179   1 H    0.999 --    90 C    0.970
   180   1 H    0.998 --    91 C    0.986
   181   1 H    0.998 --    91 C    0.986
   182   1 H    0.996 --    91 C    0.984
   183   1 H    0.998 --    92 C    0.986
   184   1 H    0.997 --    92 C    0.986
   185   1 H    0.998 --    92 C    0.983
   186   1 H    0.945 --    24 N    0.918
   187   1 H    0.958 --    75 N    0.920
 ---------------------------------------------------------------------------

Topologies differ in total number of bonds
Writing topology from bond orders to xtbtopo.mol

molecular dipole:
                 x           y           z       tot (Debye)
 q only:      -45.019     -94.338      -9.802
   full:      -43.981     -95.064     -10.363     267.535
molecular quadrupole (traceless):
                xx          xy          yy          xz          yz          zz
 q only:    -2387.941    6463.598    7720.958     527.744    1438.035   -5333.016
  q+dip:    -2532.451    6339.304    7933.223     583.017    1515.884   -5400.773
   full:    -2529.985    6343.621    7931.233     583.595    1513.546   -5401.249


           -------------------------------------------------
          | TOTAL ENERGY             -291.356695193729 Eh   |
          | GRADIENT NORM               0.342978809046 Eh/α |
          | HOMO-LUMO GAP               0.043400329549 eV   |
           -------------------------------------------------
########################################################################
[WARNING] Runtime exception occurred
-2- restart_readRestart: Dimension missmatch in restart file.
-1- restart_readRestart: Number of electron missmatch in restart file.
########################################################################

------------------------------------------------------------------------
 * finished run on 2025/05/05 at 17:14:09.908     
------------------------------------------------------------------------
 total:
 * wall-time:     0 d,  0 h,  0 min,  1.270 sec
 *  cpu-time:     0 d,  0 h,  0 min, 38.603 sec
 * ratio c/w:    30.387 speedup
 SCF:
 * wall-time:     0 d,  0 h,  0 min,  1.253 sec
 *  cpu-time:     0 d,  0 h,  0 min, 38.174 sec
 * ratio c/w:    30.468 speedup

