      -----------------------------------------------------------      
     |                   =====================                   |     
     |                           x T B                           |     
     |                   =====================                   |     
     |                         S. Grimme                         |     
     |          Mulliken Center for Theoretical Chemistry        |     
     |                    University of Bonn                     |     
      -----------------------------------------------------------      

   * xtb version 6.7.1 (edcfbbe) compiled by 'conda@afd1a870197c' on 2025-04-11

   xtb is free software: you can redistribute it and/or modify it under
   the terms of the GNU Lesser General Public License as published by
   the Free Software Foundation, either version 3 of the License, or
   (at your option) any later version.
   
   xtb is distributed in the hope that it will be useful,
   but WITHOUT ANY WARRANTY; without even the implied warranty of
   MERCHANTABILITY or FITNESS FOR A PARTICULAR PURPOSE.  See the
   GNU Lesser General Public License for more details.
   
   Cite this work as:
   * C. Bannwarth, E. Caldeweyher, S. Ehlert, A. Hansen, P. Pracht,
     J. Seibert, S. Spicher, S. Grimme, WIREs Comput. Mol. Sci., 2020, 11,
     e01493. DOI: 10.1002/wcms.1493
   
   for GFN2-xTB:
   * C. Bannwarth, S. Ehlert and S. Grimme., J. Chem. Theory Comput., 2019,
     15, 1652-1671. DOI: 10.1021/acs.jctc.8b01176
   for GFN1-xTB:
   * S. Grimme, C. Bannwarth, P. Shushkov, J. Chem. Theory Comput., 2017,
     13, 1989-2009. DOI: 10.1021/acs.jctc.7b00118
   for GFN0-xTB:
   * P. Pracht, E. Caldeweyher, S. Ehlert, S. Grimme, ChemRxiv, 2019, preprint.
     DOI: 10.26434/chemrxiv.8326202.v1
   for GFN-FF:
   * S. Spicher and S. Grimme, Angew. Chem. Int. Ed., 2020, 59, 15665-15673.
     DOI: 10.1002/anie.202004239
   
   for ALPB and GBSA implicit solvation:
   * S. Ehlert, M. Stahn, S. Spicher, S. Grimme, J. Chem. Theory Comput.,
     2021, 17, 4250-4261. DOI: 10.1021/acs.jctc.1c00471
   
   for ddCOSMO and CPCM-X implicit solvation:
   * M. Stahn, S. Ehlert, S. Grimme, J. Phys. Chem. A,
     2023, XX, XXXX-XXXX. DOI: 10.1021/acs.jpca.3c04382
   
   for DFT-D4:
   * E. Caldeweyher, C. Bannwarth and S. Grimme, J. Chem. Phys., 2017,
     147, 034112. DOI: 10.1063/1.4993215
   * E. Caldeweyher, S. Ehlert, A. Hansen, H. Neugebauer, S. Spicher,
     C. Bannwarth and S. Grimme, J. Chem. Phys., 2019, 150, 154122.
     DOI: 10.1063/1.5090222
   * E. Caldeweyher, J.-M. Mewes, S. Ehlert and S. Grimme, Phys. Chem. Chem. Phys.
     2020, 22, 8499-8512. DOI: 10.1039/D0CP00502A
   
   for sTDA-xTB:
   * S. Grimme and C. Bannwarth, J. Chem. Phys., 2016, 145, 054103.
     DOI: 10.1063/1.4959605
   
   in the mass-spec context:
   * V. Asgeirsson, C. Bauer and S. Grimme, Chem. Sci., 2017, 8, 4879.
     DOI: 10.1039/c7sc00601b
   * J. Koopman and S. Grimme, ACS Omega 2019, 4, 12, 15120-15133.
     DOI: 10.1021/acsomega.9b02011
   
   for metadynamics refer to:
   * S. Grimme, J. Chem. Theory Comput., 2019, 155, 2847-2862
     DOI: 10.1021/acs.jctc.9b00143
   
   for SPH calculations refer to:
   * S. Spicher and S. Grimme, J. Chem. Theory Comput., 2021, 17, 1701-1714
     DOI: 10.1021/acs.jctc.0c01306
   
   for ONIOM refer to:
   * C. Plett, A. Katbashev, S. Ehlert, S. Grimme, M. Bursch,
     Phys. Chem. Chem. Phys., 2023, 25, 17860-17868. DOI: 10.1039/D3CP02178E
   
   for DIPRO refer to:
   * J. Kohn, N. Gildemeister, S. Grimme, D. Fazzi, A. Hansen,
     J. Chem. Phys., 2023, just accepted.
   
   for PTB refer to:
   * S. Grimme, M. Mueller, A. Hansen, J. Chem. Phys., 2023, 158, 124111.
     DOI: 10.1063/5.0137838
   
   with help from (in alphabetical order)
   P. Atkinson, C. Bannwarth, F. Bohle, G. Brandenburg, E. Caldeweyher
   M. Checinski, S. Dohm, S. Ehlert, S. Ehrlich, I. Gerasimov, C. Hölzer
   A. Katbashev, J. Kohn, J. Koopman, C. Lavigne, S. Lehtola, F. März, M. Müller,
   F. Musil, H. Neugebauer, J. Pisarek, C. Plett, P. Pracht, F. Pultar,
   J. Seibert, P. Shushkov, S. Spicher, M. Stahn, M. Steiner, T. Strunk,
   J. Stückrath, T. Rose, and J. Unsleber
   
 * started run on 2025/05/05 at 16:49:19.836     
   ID    Z sym.   atoms
    1    7 N      1, 9, 10, 18, 25, 37, 45, 50, 59, 65, 68
    2    6 C      2, 3, 5-7, 11, 12, 14-17, 19, 20, 22-24, 26, 27, 29-35, 38,
                  39, 41-44, 46, 47, 49, 51, 52, 54-56, 60, 61, 63, 64, 66, 67
    3    8 O      4, 8, 13, 21, 28, 36, 40, 48, 53, 57, 58, 62
    4    1 H      69-153

           -------------------------------------------------
          |                Calculation Setup                |
           -------------------------------------------------

          program call               : xtb /tmp/tmp8j14ep3p/HID/input.xyz --alpb ether --chrg -2 --input /tmp/tmp8j14ep3p/HID/constraints.inp --gfn 2
          hostname                   : fedora
          coordinate file            : /tmp/tmp8j14ep3p/HID/input.xyz
          omp threads                :                    32


molecular fragmentation (1/2 indicates fragments):
111111111222222222222222222222222222222222222222222222222222222222222222
222111111111122222222222222222222222222222222222222222222222222222222222
222222222
# atoms in fragment 1/2:    19   134
 fragment masses (1/2) :      130.15      842.08
CMA distance (Bohr)    :  17.225
constraining FC (au)   :  0.0500
########################################################################
[WARNING] Please study the warnings concerning your input carefully
-1- readin_getIntValue: could not parse 'S'
########################################################################

           -------------------------------------------------
          |                 G F N 2 - x T B                 |
           -------------------------------------------------

        Reference                      10.1021/acs.jctc.8b01176
      * Hamiltonian:
        H0-scaling (s, p, d)           1.850000    2.230000    2.230000
        zeta-weighting                 0.500000
      * Dispersion:
        s8                             2.700000
        a1                             0.520000
        a2                             5.000000
        s9                             5.000000
      * Repulsion:
        kExp                           1.500000    1.000000
        rExp                           1.000000
      * Coulomb:
        alpha                          2.000000
        third order                    shell-resolved
        anisotropic                    true
        a3                             3.000000
        a5                             4.000000
        cn-shift                       1.200000
        cn-exp                         4.000000
        max-rad                        5.000000

      * Solvation model:               ALPB
        Solvent                        ether
        Parameter file                 internal GFN2-xTB/ALPB
        Dielectric constant                4.3300E+00
        Reference state                gsolv [1 M gas/solution]
        Free energy shift                  4.9534E-03 Eh       3.1083E+00 kcal/mol
        Temperature                        2.9815E+02 K
        Density                            7.1300E-01 kg/L
        Solvent mass                       7.4120E+01 g/mol
        Interaction kernel             P16
        Born radius scaling (c1)           1.5847E+00
        Born radii integrator          GBOBC
        Born offset                        0.0000E+00 a0       0.0000E+00 AA
        H-bond correction              true
        Ion screening                  false
        Surface tension                    1.0000E-05 Eh       1.5569E+01 dyn/cm
        Grid points                               230 per atom

          ...................................................
          :                      SETUP                      :
          :.................................................:
          :  # basis functions                 357          :
          :  # atomic orbitals                 357          :
          :  # shells                          221          :
          :  # electrons                       394          :
          :  max. iterations                   250          :
          :  Hamiltonian                  GFN2-xTB          :
          :  restarted?                      false          :
          :  GBSA solvation                   true          :
          :  PC potential                    false          :
          :  electronic temp.          300.0000000     K    :
          :  accuracy                    1.0000000          :
          :  -> integral cutoff          0.2500000E+02      :
          :  -> integral neglect         0.1000000E-07      :
          :  -> SCF convergence          0.1000000E-05 Eh   :
          :  -> wf. convergence          0.1000000E-03 e    :
          :  Broyden damping             0.4000000          :
          :  net charge                         -2          :
          :  unpaired electrons                  0          :
          ...................................................

 iter      E             dE          RMSdq      gap      omega  full diag
   1   -223.1360919 -0.223136E+03  0.435E+00    2.40       0.0  T
   2   -222.9717503  0.164342E+00  0.285E+00    0.03       1.0  T
   3   -223.5107816 -0.539031E+00  0.217E+00    1.66       1.0  T
   4   -223.8565264 -0.345745E+00  0.111E+00    1.35       1.0  T
   5   -223.8956284 -0.391020E-01  0.616E-01    0.17       1.0  T
   6   -222.9499258  0.945703E+00  0.225E+00    0.48       1.0  T
   7   -223.1320330 -0.182107E+00  0.197E+00    0.11       1.0  T
   8   -223.8820124 -0.749979E+00  0.537E-01    0.63       1.0  T
   9   -223.8881320 -0.611954E-02  0.478E-01    0.48       1.0  T
  10   -223.8890212 -0.889275E-03  0.459E-01    0.37       1.0  T
  11   -223.8953953 -0.637406E-02  0.413E-01    0.22       1.0  T
  12   -223.9112062 -0.158109E-01  0.308E-01    0.14       1.0  T
  13   -223.9160107 -0.480449E-02  0.261E-01    0.11       1.0  T
  14   -223.9070265  0.898423E-02  0.326E-01    0.17       1.0  T
  15   -223.9121028 -0.507627E-02  0.281E-01    0.14       1.0  T
  16   -223.8944920  0.176107E-01  0.408E-01    0.05       1.0  T
  17   -223.9190115 -0.245195E-01  0.206E-01    0.11       1.0  T
  18   -223.9192248 -0.213235E-03  0.190E-01    0.11       1.0  T
  19   -223.9198315 -0.606742E-03  0.176E-01    0.10       1.0  T
  20   -223.9236672 -0.383571E-02  0.794E-02    0.11       1.0  T
  21   -223.4974063  0.426261E+00  0.149E+00    0.05       1.0  T
  22   -223.9096540 -0.412248E+00  0.317E-01    0.14       1.0  T
  23   -223.9141670 -0.451304E-02  0.266E-01    0.13       1.0  T
  24   -223.9178302 -0.366317E-02  0.217E-01    0.11       1.0  T
  25   -223.9187793 -0.949094E-03  0.192E-01    0.12       1.0  T
  26   -223.9196908 -0.911562E-03  0.167E-01    0.12       1.0  T
  27   -223.7547134  0.164977E+00  0.943E-01    0.00       1.0  T
  28   -223.9099338 -0.155220E+00  0.344E-01    0.13       1.0  T
  29   -223.9158756 -0.594178E-02  0.253E-01    0.12       1.0  T
  30   -223.9179748 -0.209920E-02  0.208E-01    0.12       1.0  T
  31   -223.9207321 -0.275730E-02  0.147E-01    0.12       1.0  T
  32   -223.4571783  0.463554E+00  0.156E+00    0.06       1.0  T
  33   -223.8892210 -0.432043E+00  0.571E-01    0.17       1.0  T
  34   -223.9064797 -0.172587E-01  0.374E-01    0.15       1.0  T
  35   -223.9125446 -0.606493E-02  0.288E-01    0.13       1.0  T
  36   -223.9157896 -0.324500E-02  0.243E-01    0.12       1.0  T
  37   -223.9190092 -0.321958E-02  0.181E-01    0.12       1.0  T
  38   -223.3006479  0.618361E+00  0.180E+00    0.09       1.0  T
  39   -223.8655027 -0.564855E+00  0.773E-01    0.20       1.0  T
  40   -223.9025299 -0.370272E-01  0.399E-01    0.16       1.0  T
  41   -223.9123461 -0.981615E-02  0.283E-01    0.14       1.0  T
  42   -223.9165882 -0.424210E-02  0.223E-01    0.12       1.0  T
  43   -223.9190929 -0.250469E-02  0.176E-01    0.12       1.0  T
  44   -223.5585524  0.360540E+00  0.138E+00    0.04       1.0  T
  45   -223.8748701 -0.316318E+00  0.697E-01    0.19       1.0  T
  46   -223.9081592 -0.332892E-01  0.344E-01    0.14       1.0  T
  47   -223.9171756 -0.901638E-02  0.216E-01    0.12       1.0  T
  48   -223.9199234 -0.274782E-02  0.161E-01    0.12       1.0  T
  49   -223.5479984  0.371925E+00  0.140E+00    0.04       1.0  T
  50   -223.8725454 -0.324547E+00  0.717E-01    0.19       1.0  T
  51   -223.9081445 -0.355991E-01  0.346E-01    0.14       1.0  T
  52   -223.9172806 -0.913616E-02  0.213E-01    0.12       1.0  T
  53   -223.9200143 -0.273366E-02  0.159E-01    0.12       1.0  T
  54   -223.5702708  0.349744E+00  0.136E+00    0.04       1.0  T
  55   -223.8727833 -0.302513E+00  0.715E-01    0.19       1.0  T
  56   -223.9086866 -0.359032E-01  0.341E-01    0.14       1.0  T
  57   -223.9175259 -0.883933E-02  0.208E-01    0.12       1.0  T
  58   -223.9217211 -0.419516E-02  0.126E-01    0.12       1.0  T
  59   -223.8239033  0.978177E-01  0.728E-01    0.02       1.0  T
  60   -223.8984924 -0.745890E-01  0.485E-01    0.15       1.0  T
  61   -223.9168450 -0.183526E-01  0.230E-01    0.12       1.0  T
  62   -223.9247351 -0.789012E-02  0.145E-02    0.11       1.0  T
  63   -223.9162666  0.846851E-02  0.212E-01    0.07       1.0  T
  64   -223.9167915 -0.524872E-03  0.242E-01    0.12       1.0  T
  65   -223.9246862 -0.789475E-02  0.215E-02    0.11       1.0  T
  66   -223.5962865  0.328400E+00  0.131E+00    0.03       1.0  T
  67   -223.8809336 -0.284647E+00  0.649E-01    0.17       1.0  T
  68   -223.9116185 -0.306849E-01  0.312E-01    0.13       1.0  T
  69   -223.9177662 -0.614769E-02  0.209E-01    0.12       1.0  T
  70   -223.9205036 -0.273738E-02  0.151E-01    0.12       1.0  T
  71   -223.2609265  0.659577E+00  0.186E+00    0.10       1.0  T
  72   -223.1438712  0.117055E+00  0.186E+00    0.02       1.0  T
  73   -223.0378286  0.106043E+00  0.198E+00    0.02       1.0  T
  74   -223.9007884 -0.862960E+00  0.506E-01    0.12       1.0  T
  75   -223.9104280 -0.963965E-02  0.320E-01    0.14       1.0  T
  76   -223.9171242 -0.669619E-02  0.220E-01    0.12       1.0  T
  77   -223.9186755 -0.155130E-02  0.180E-01    0.12       1.0  T
  78   -223.1793554  0.739320E+00  0.197E+00    0.12       1.0  T
  79   -222.8029657  0.376390E+00  0.223E+00    0.02       1.0  T
  80   -223.9066561 -0.110369E+01  0.392E-01    0.13       1.0  T
  81   -223.9177600 -0.111039E-01  0.206E-01    0.12       1.0  T
  82   -223.9245831 -0.682315E-02  0.402E-02    0.10       1.0  T
  83   -223.9224297  0.215346E-02  0.108E-01    0.11       1.0  T
  84   -223.1258005  0.796629E+00  0.204E+00    0.14       1.0  T
  85   -223.3111009 -0.185300E+00  0.166E+00    0.01       1.0  T
  86   -223.8966669 -0.585566E+00  0.533E-01    0.13       1.0  T
  87   -223.9172312 -0.205643E-01  0.211E-01    0.12       1.0  T
  88   -223.9187081 -0.147687E-02  0.176E-01    0.12       1.0  T
  89   -223.8582638  0.604442E-01  0.601E-01    0.03       1.0  T
  90   -223.9069636 -0.486998E-01  0.380E-01    0.14       1.0  T
  91   -223.9183931 -0.114295E-01  0.206E-01    0.11       1.0  T
  92   -223.8736737  0.447195E-01  0.526E-01    0.04       1.0  T
  93   -223.9119476 -0.382739E-01  0.322E-01    0.12       1.0  T
  94   -223.9193133 -0.736563E-02  0.186E-01    0.11       1.0  T
  95   -223.6989421  0.220371E+00  0.109E+00    0.01       1.0  T
  96   -223.8925044 -0.193562E+00  0.543E-01    0.16       1.0  T
  97   -223.9149065 -0.224022E-01  0.274E-01    0.12       1.0  T
  98   -223.9189109 -0.400439E-02  0.188E-01    0.11       1.0  T
  99   -223.9240216 -0.511062E-02  0.571E-02    0.11       1.0  T
 100   -223.7616766  0.162345E+00  0.932E-01    0.00       1.0  T
 101   -223.8967680 -0.135091E+00  0.502E-01    0.15       1.0  T
 102   -223.9160805 -0.193126E-01  0.253E-01    0.11       1.0  T
 103   -223.9194426 -0.336202E-02  0.175E-01    0.11       1.0  T
 104   -223.8736136  0.458290E-01  0.528E-01    0.04       1.0  T
 105   -223.9101222 -0.365086E-01  0.349E-01    0.13       1.0  T
 106   -223.9190167 -0.889452E-02  0.191E-01    0.11       1.0  T
 107   -223.9134130  0.560368E-02  0.254E-01    0.07       1.0  T
 108   -223.9177130 -0.429999E-02  0.222E-01    0.11       1.0  T
 109   -223.9208011 -0.308807E-02  0.143E-01    0.11       1.0  T
 110   -223.0781630  0.842638E+00  0.211E+00    0.16       1.0  T
 111   -222.6861178  0.392045E+00  0.242E+00    0.03       1.0  T
 112   -221.1247927  0.156133E+01  0.389E+00    0.14       1.0  T
 113   -221.1288825 -0.408987E-02  0.391E+00    0.13       1.0  T
 114   -222.7034481 -0.157457E+01  0.291E+00    0.15       1.0  T
 115   -215.5472411  0.715621E+01  0.559E+00    0.75       1.0  T
 116   -215.5877104 -0.404693E-01  0.557E+00    0.68       1.0  T
 117   -215.6121053 -0.243948E-01  0.555E+00    0.64       1.0  T
 118   -215.7134386 -0.101333E+00  0.549E+00    0.50       1.0  T
 119   -215.6160750  0.973636E-01  0.554E+00    0.68       1.0  T
 120   -215.7097229 -0.936479E-01  0.548E+00    0.62       1.0  T
 121   -222.2476341 -0.653791E+01  0.325E+00    0.76       1.0  T
 122   -223.0103378 -0.762704E+00  0.221E+00    0.43       1.0  T
 123   -222.6807222  0.329616E+00  0.302E+00    0.56       1.0  T
 124   -222.8401014 -0.159379E+00  0.263E+00    0.50       1.0  T
 125   -222.9977037 -0.157602E+00  0.217E+00    0.56       1.0  T
 126   -223.8683683 -0.870665E+00  0.762E-01    0.35       1.0  T
 127   -223.8818620 -0.134938E-01  0.614E-01    0.49       1.0  T
 128   -223.8841781 -0.231605E-02  0.576E-01    0.42       1.0  T
 129   -223.0287096  0.855468E+00  0.210E+00    0.33       1.0  T
 130   -223.8661341 -0.837424E+00  0.769E-01    0.29       1.0  T
 131   -223.8989135 -0.327795E-01  0.462E-01    0.16       1.0  T
 132   -223.3318052  0.567108E+00  0.171E+00    0.08       1.0  T
 133   -223.8761762 -0.544371E+00  0.726E-01    0.16       1.0  T
 134   -223.9003078 -0.241316E-01  0.439E-01    0.07       1.0  T
 135   -223.9176962 -0.173885E-01  0.227E-01    0.09       1.0  T
 136   -223.9187396 -0.104340E-02  0.168E-01    0.07       1.0  T
 137   -223.9152022  0.353743E-02  0.293E-01    0.10       1.0  T
 138   -223.9219937 -0.679147E-02  0.120E-01    0.09       1.0  T
 139   -223.9178006  0.419304E-02  0.233E-01    0.11       1.0  T
 140   -223.4499809  0.467820E+00  0.156E+00    0.06       1.0  T
 141   -223.8771818 -0.427201E+00  0.693E-01    0.18       1.0  T
 142   -223.9131392 -0.359573E-01  0.327E-01    0.11       1.0  T
 143   -223.9191051 -0.596589E-02  0.187E-01    0.11       1.0  T
 144   -223.8348334  0.842717E-01  0.694E-01    0.02       1.0  T
 145   -223.9015109 -0.666775E-01  0.445E-01    0.15       1.0  T
 146   -223.9184589 -0.169480E-01  0.207E-01    0.11       1.0  T
 147   -223.9032663  0.151925E-01  0.353E-01    0.06       1.0  T
 148   -223.9111070 -0.784066E-02  0.320E-01    0.14       1.0  T
 149   -223.9201534 -0.904642E-02  0.157E-01    0.11       1.0  T
 150   -223.8053864  0.114767E+00  0.808E-01    0.01       1.0  T
 151   -223.9001968 -0.948105E-01  0.457E-01    0.15       1.0  T
 152   -223.9182497 -0.180528E-01  0.207E-01    0.11       1.0  T
 153   -223.9118841  0.636551E-02  0.286E-01    0.07       1.0  T
 154   -223.9141147 -0.223052E-02  0.275E-01    0.13       1.0  T
 155   -223.9216983 -0.758362E-02  0.125E-01    0.11       1.0  T
 156   -223.9232025 -0.150423E-02  0.121E-01    0.09       1.0  T
 157   -223.9179310  0.527153E-02  0.201E-01    0.12       1.0  T
 158   -223.8724446  0.454863E-01  0.550E-01    0.04       1.0  T
 159   -223.9111012 -0.386566E-01  0.332E-01    0.13       1.0  T
 160   -223.9194468 -0.834557E-02  0.174E-01    0.10       1.0  T
 161   -223.9213104 -0.186366E-02  0.170E-01    0.08       1.0  T
 162   -223.9178337  0.347670E-02  0.208E-01    0.11       1.0  T
 163   -223.9235332 -0.569949E-02  0.920E-02    0.10       1.0  T
 164   -223.9196327  0.390056E-02  0.160E-01    0.11       1.0  T
 165   -223.9077331  0.118995E-01  0.333E-01    0.06       1.0  T
 166   -223.9162024 -0.846928E-02  0.247E-01    0.11       1.0  T
 167   -223.9196776 -0.347516E-02  0.162E-01    0.10       1.0  T
 168   -223.9230079 -0.333031E-02  0.994E-02    0.10       1.0  T
 169   -223.9198055  0.320236E-02  0.155E-01    0.10       1.0  T
 170   -223.9239496 -0.414405E-02  0.911E-02    0.10       1.0  T
 171   -223.9193234  0.462612E-02  0.168E-01    0.10       1.0  T
 172   -223.9223807 -0.305723E-02  0.111E-01    0.10       1.0  T
 173   -223.9199912  0.238952E-02  0.150E-01    0.10       1.0  T
 174   -223.9224632 -0.247201E-02  0.108E-01    0.10       1.0  T
 175   -223.9199313  0.253186E-02  0.151E-01    0.10       1.0  T
 176   -223.9216528 -0.172148E-02  0.121E-01    0.10       1.0  T
 177   -223.9201820  0.147080E-02  0.145E-01    0.10       1.0  T
 178   -223.9209473 -0.765358E-03  0.132E-01    0.10       1.0  T
 179   -223.9203409  0.606422E-03  0.142E-01    0.10       1.0  T
 180   -223.9204993 -0.158363E-03  0.139E-01    0.10       1.0  T
 181   -223.9202922  0.207067E-03  0.142E-01    0.10       1.0  T
 182   -223.9202836  0.863373E-05  0.142E-01    0.10       1.0  T
 183   -223.9201400  0.143613E-03  0.144E-01    0.10       1.0  T
 184   -223.9201207  0.192450E-04  0.145E-01    0.10       1.0  T
 185   -223.9200656  0.551045E-04  0.145E-01    0.10       1.0  T
 186   -223.9205285 -0.462850E-03  0.137E-01    0.10       1.0  T
 187   -223.9210980 -0.569518E-03  0.167E-01    0.08       1.0  T
 188   -223.9202930  0.804977E-03  0.152E-01    0.10       1.0  T
 189   -223.9029408  0.173522E-01  0.361E-01    0.06       1.0  T
 190   -223.9182229 -0.152821E-01  0.207E-01    0.11       1.0  T
 191   -223.9202408 -0.201789E-02  0.156E-01    0.10       1.0  T
 192   -223.9200977  0.143056E-03  0.176E-01    0.08       1.0  T
 193   -223.9205365 -0.438780E-03  0.140E-01    0.10       1.0  T
 194   -223.9235220 -0.298551E-02  0.101E-01    0.10       1.0  T
 195   -223.9202063  0.331575E-02  0.150E-01    0.10       1.0  T
 196   -223.9211136 -0.907318E-03  0.127E-01    0.10       1.0  T
 197   -223.9210541  0.595037E-04  0.171E-01    0.08       1.0  T
 198   -223.9186028  0.245124E-02  0.190E-01    0.11       1.0  T
 199   -223.9203540 -0.175120E-02  0.146E-01    0.10       1.0  T
 200   -223.9238620 -0.350795E-02  0.697E-02    0.10       1.0  T
 201   -223.9223135  0.154850E-02  0.103E-01    0.10       1.0  T
 202   -223.9239105 -0.159703E-02  0.976E-02    0.10       1.0  T
 203   -223.9199226  0.398788E-02  0.157E-01    0.10       1.0  T
 204   -223.9224828 -0.256016E-02  0.998E-02    0.10       1.0  T
 205   -223.9026679  0.198149E-01  0.369E-01    0.06       1.0  T
 206   -223.9162469 -0.135791E-01  0.244E-01    0.11       1.0  T
 207   -223.9200805 -0.383354E-02  0.158E-01    0.10       1.0  T
 208   -223.9216234 -0.154293E-02  0.119E-01    0.10       1.0  T
 209   -223.8184269  0.103196E+00  0.771E-01    0.02       1.0  T
 210   -223.9066669 -0.882400E-01  0.387E-01    0.13       1.0  T
 211   -223.9180566 -0.113897E-01  0.216E-01    0.10       1.0  T
 212   -223.9197404 -0.168375E-02  0.170E-01    0.10       1.0  T
 213   -223.9206095 -0.869100E-03  0.141E-01    0.10       1.0  T
 214   -223.9225464 -0.193694E-02  0.104E-01    0.09       1.0  T
 215   -223.9207449  0.180155E-02  0.134E-01    0.09       1.0  T
 216   -223.9215388 -0.793902E-03  0.118E-01    0.10       1.0  T
 217   -223.9236284 -0.208959E-02  0.772E-02    0.10       1.0  T
 218   -223.9209470  0.268132E-02  0.129E-01    0.10       1.0  T
 219   -223.9242972 -0.335020E-02  0.748E-02    0.10       1.0  T
 220   -223.9202294  0.406783E-02  0.146E-01    0.10       1.0  T
 221   -223.9241956 -0.396617E-02  0.709E-02    0.10       1.0  T
 222   -223.9206528  0.354274E-02  0.136E-01    0.10       1.0  T
 223   -223.9225356 -0.188274E-02  0.143E-01    0.09       1.0  T
 224   -223.9196268  0.290879E-02  0.166E-01    0.10       1.0  T
 225   -223.9219237 -0.229694E-02  0.111E-01    0.10       1.0  T
 226   -223.9192604  0.266329E-02  0.202E-01    0.08       1.0  T
 227   -223.9191823  0.781653E-04  0.180E-01    0.10       1.0  T
 228   -223.9209030 -0.172074E-02  0.133E-01    0.10       1.0  T
 229   -223.9214700 -0.566946E-03  0.160E-01    0.08       1.0  T
 230   -223.9197687  0.170131E-02  0.165E-01    0.10       1.0  T
 231   -223.9211808 -0.141218E-02  0.127E-01    0.10       1.0  T
 232   -223.9215839 -0.403048E-03  0.159E-01    0.09       1.0  T
 233   -223.9197529  0.183094E-02  0.165E-01    0.10       1.0  T
 234   -223.9211151 -0.136215E-02  0.128E-01    0.10       1.0  T
 235   -223.9232211 -0.210605E-02  0.117E-01    0.10       1.0  T
 236   -223.9201573  0.306387E-02  0.152E-01    0.10       1.0  T
 237   -223.9219623 -0.180502E-02  0.111E-01    0.10       1.0  T
 238   -223.9237078 -0.174548E-02  0.989E-02    0.10       1.0  T
 239   -223.9203572  0.335055E-02  0.145E-01    0.10       1.0  T
 240   -223.9230981 -0.274085E-02  0.898E-02    0.10       1.0  T
 241   -223.9228308  0.267295E-03  0.950E-02    0.10       1.0  T
 242   -223.9228762 -0.454608E-04  0.941E-02    0.10       1.0  T
 243   -223.9230012 -0.124962E-03  0.919E-02    0.10       1.0  T
 244   -223.9229384  0.628141E-04  0.931E-02    0.10       1.0  T
 245   -223.9229574 -0.190240E-04  0.928E-02    0.10       1.0  T
 246   -223.9229363  0.210488E-04  0.931E-02    0.10       1.0  T
 247   -223.9229360  0.322856E-06  0.931E-02    0.10       1.0  T
 248   -223.9229293  0.669428E-05  0.933E-02    0.10       1.0  T
 249   -223.9229177  0.115955E-04  0.935E-02    0.10       1.0  T
 250   -223.9229252 -0.745290E-05  0.933E-02    0.10       1.0  T

   *** convergence criteria cannot be satisfied within 250 iterations ***

         #    Occupation            Energy/Eh            Energy/eV
      -------------------------------------------------------------
         1        2.0000           -0.6856022             -18.6562
       ...           ...                  ...                  ...
       191        2.0000           -0.3244948              -8.8300
       192        2.0000           -0.3202105              -8.7134
       193        2.0000           -0.3039235              -8.2702
       194        2.0000           -0.2916007              -7.9349
       195        2.0000           -0.2818636              -7.6699
       196        2.0000           -0.2747608              -7.4766
       197        1.6163           -0.2478981              -6.7457 (HOMO)
       198        0.1726           -0.2442905              -6.6475 (LUMO)
       199        0.1279           -0.2439827              -6.6391
       200        0.0498           -0.2430475              -6.6137
       201        0.0334           -0.2426589              -6.6031
       202                         -0.2000058              -5.4424
       ...                                ...                  ...
       357                          0.8568948              23.3173
      -------------------------------------------------------------
                  HL-Gap            0.0036076 Eh            0.0982 eV
             Fermi-level           -0.2465320 Eh           -6.7085 eV

 SCC (total)                   0 d,  0 h,  0 min,  3.789 sec
 SCC setup                      ...        0 min,  0.002 sec (  0.047%)
 Dispersion                     ...        0 min,  0.005 sec (  0.128%)
 classical contributions        ...        0 min,  0.000 sec (  0.005%)
 integral evaluation            ...        0 min,  0.008 sec (  0.210%)
 iterations                     ...        0 min,  3.754 sec ( 99.070%)
 molecular gradient             ...        0 min,  0.019 sec (  0.511%)
 printout                       ...        0 min,  0.001 sec (  0.027%)

########################################################################
[ERROR] Program stopped due to fatal error
-5- Single point calculation terminated
-4- xtb_calculator_singlepoint: Electronic structure method terminated
-3- scf: Self consistent charge iterator did not converge
-2- restart_readRestart: Dimension missmatch in restart file.
-1- restart_readRestart: Number of electron missmatch in restart file.
########################################################################
