      -----------------------------------------------------------      
     |                   =====================                   |     
     |                           x T B                           |     
     |                   =====================                   |     
     |                         S. Grimme                         |     
     |          Mulliken Center for Theoretical Chemistry        |     
     |                    University of Bonn                     |     
      -----------------------------------------------------------      

   * xtb version 6.7.1 (edcfbbe) compiled by 'conda@afd1a870197c' on 2025-04-11

   xtb is free software: you can redistribute it and/or modify it under
   the terms of the GNU Lesser General Public License as published by
   the Free Software Foundation, either version 3 of the License, or
   (at your option) any later version.
   
   xtb is distributed in the hope that it will be useful,
   but WITHOUT ANY WARRANTY; without even the implied warranty of
   MERCHANTABILITY or FITNESS FOR A PARTICULAR PURPOSE.  See the
   GNU Lesser General Public License for more details.
   
   Cite this work as:
   * C. Bannwarth, E. Caldeweyher, S. Ehlert, A. Hansen, P. Pracht,
     J. Seibert, S. Spicher, S. Grimme, WIREs Comput. Mol. Sci., 2020, 11,
     e01493. DOI: 10.1002/wcms.1493
   
   for GFN2-xTB:
   * C. Bannwarth, S. Ehlert and S. Grimme., J. Chem. Theory Comput., 2019,
     15, 1652-1671. DOI: 10.1021/acs.jctc.8b01176
   for GFN1-xTB:
   * S. Grimme, C. Bannwarth, P. Shushkov, J. Chem. Theory Comput., 2017,
     13, 1989-2009. DOI: 10.1021/acs.jctc.7b00118
   for GFN0-xTB:
   * P. Pracht, E. Caldeweyher, S. Ehlert, S. Grimme, ChemRxiv, 2019, preprint.
     DOI: 10.26434/chemrxiv.8326202.v1
   for GFN-FF:
   * S. Spicher and S. Grimme, Angew. Chem. Int. Ed., 2020, 59, 15665-15673.
     DOI: 10.1002/anie.202004239
   
   for ALPB and GBSA implicit solvation:
   * S. Ehlert, M. Stahn, S. Spicher, S. Grimme, J. Chem. Theory Comput.,
     2021, 17, 4250-4261. DOI: 10.1021/acs.jctc.1c00471
   
   for ddCOSMO and CPCM-X implicit solvation:
   * M. Stahn, S. Ehlert, S. Grimme, J. Phys. Chem. A,
     2023, XX, XXXX-XXXX. DOI: 10.1021/acs.jpca.3c04382
   
   for DFT-D4:
   * E. Caldeweyher, C. Bannwarth and S. Grimme, J. Chem. Phys., 2017,
     147, 034112. DOI: 10.1063/1.4993215
   * E. Caldeweyher, S. Ehlert, A. Hansen, H. Neugebauer, S. Spicher,
     C. Bannwarth and S. Grimme, J. Chem. Phys., 2019, 150, 154122.
     DOI: 10.1063/1.5090222
   * E. Caldeweyher, J.-M. Mewes, S. Ehlert and S. Grimme, Phys. Chem. Chem. Phys.
     2020, 22, 8499-8512. DOI: 10.1039/D0CP00502A
   
   for sTDA-xTB:
   * S. Grimme and C. Bannwarth, J. Chem. Phys., 2016, 145, 054103.
     DOI: 10.1063/1.4959605
   
   in the mass-spec context:
   * V. Asgeirsson, C. Bauer and S. Grimme, Chem. Sci., 2017, 8, 4879.
     DOI: 10.1039/c7sc00601b
   * J. Koopman and S. Grimme, ACS Omega 2019, 4, 12, 15120-15133.
     DOI: 10.1021/acsomega.9b02011
   
   for metadynamics refer to:
   * S. Grimme, J. Chem. Theory Comput., 2019, 155, 2847-2862
     DOI: 10.1021/acs.jctc.9b00143
   
   for SPH calculations refer to:
   * S. Spicher and S. Grimme, J. Chem. Theory Comput., 2021, 17, 1701-1714
     DOI: 10.1021/acs.jctc.0c01306
   
   for ONIOM refer to:
   * C. Plett, A. Katbashev, S. Ehlert, S. Grimme, M. Bursch,
     Phys. Chem. Chem. Phys., 2023, 25, 17860-17868. DOI: 10.1039/D3CP02178E
   
   for DIPRO refer to:
   * J. Kohn, N. Gildemeister, S. Grimme, D. Fazzi, A. Hansen,
     J. Chem. Phys., 2023, just accepted.
   
   for PTB refer to:
   * S. Grimme, M. Mueller, A. Hansen, J. Chem. Phys., 2023, 158, 124111.
     DOI: 10.1063/5.0137838
   
   with help from (in alphabetical order)
   P. Atkinson, C. Bannwarth, F. Bohle, G. Brandenburg, E. Caldeweyher
   M. Checinski, S. Dohm, S. Ehlert, S. Ehrlich, I. Gerasimov, C. Hölzer
   A. Katbashev, J. Kohn, J. Koopman, C. Lavigne, S. Lehtola, F. März, M. Müller,
   F. Musil, H. Neugebauer, J. Pisarek, C. Plett, P. Pracht, F. Pultar,
   J. Seibert, P. Shushkov, S. Spicher, M. Stahn, M. Steiner, T. Strunk,
   J. Stückrath, T. Rose, and J. Unsleber
   
 * started run on 2025/05/05 at 16:49:23.677     
   ID    Z sym.   atoms
    1    7 N      1, 9, 10, 18, 25, 37, 45, 50, 59, 65, 68
    2    6 C      2, 3, 5-7, 11, 12, 14-17, 19, 20, 22-24, 26, 27, 29-35, 38,
                  39, 41-44, 46, 47, 49, 51, 52, 54-56, 60, 61, 63, 64, 66, 67
    3    8 O      4, 8, 13, 21, 28, 36, 40, 48, 53, 57, 58, 62
    4    1 H      69-153

           -------------------------------------------------
          |                Calculation Setup                |
           -------------------------------------------------

          program call               : xtb /tmp/tmp8j14ep3p/HIE/input.xyz --alpb ether --chrg -2 --input /tmp/tmp8j14ep3p/HIE/constraints.inp --gfn 2
          hostname                   : fedora
          coordinate file            : /tmp/tmp8j14ep3p/HIE/input.xyz
          omp threads                :                    32


molecular fragmentation (1/2 indicates fragments):
111111111222222222222222222222222222222222222222222222222222222222222222
222111111111122222222222222222222222222222222222222222222222222222222222
222222222
# atoms in fragment 1/2:    19   134
 fragment masses (1/2) :      130.15      842.08
CMA distance (Bohr)    :  17.230
constraining FC (au)   :  0.0500
########################################################################
[WARNING] Please study the warnings concerning your input carefully
-1- readin_getIntValue: could not parse 'S'
########################################################################

           -------------------------------------------------
          |                 G F N 2 - x T B                 |
           -------------------------------------------------

        Reference                      10.1021/acs.jctc.8b01176
      * Hamiltonian:
        H0-scaling (s, p, d)           1.850000    2.230000    2.230000
        zeta-weighting                 0.500000
      * Dispersion:
        s8                             2.700000
        a1                             0.520000
        a2                             5.000000
        s9                             5.000000
      * Repulsion:
        kExp                           1.500000    1.000000
        rExp                           1.000000
      * Coulomb:
        alpha                          2.000000
        third order                    shell-resolved
        anisotropic                    true
        a3                             3.000000
        a5                             4.000000
        cn-shift                       1.200000
        cn-exp                         4.000000
        max-rad                        5.000000

      * Solvation model:               ALPB
        Solvent                        ether
        Parameter file                 internal GFN2-xTB/ALPB
        Dielectric constant                4.3300E+00
        Reference state                gsolv [1 M gas/solution]
        Free energy shift                  4.9534E-03 Eh       3.1083E+00 kcal/mol
        Temperature                        2.9815E+02 K
        Density                            7.1300E-01 kg/L
        Solvent mass                       7.4120E+01 g/mol
        Interaction kernel             P16
        Born radius scaling (c1)           1.5847E+00
        Born radii integrator          GBOBC
        Born offset                        0.0000E+00 a0       0.0000E+00 AA
        H-bond correction              true
        Ion screening                  false
        Surface tension                    1.0000E-05 Eh       1.5569E+01 dyn/cm
        Grid points                               230 per atom

          ...................................................
          :                      SETUP                      :
          :.................................................:
          :  # basis functions                 357          :
          :  # atomic orbitals                 357          :
          :  # shells                          221          :
          :  # electrons                       394          :
          :  max. iterations                   250          :
          :  Hamiltonian                  GFN2-xTB          :
          :  restarted?                      false          :
          :  GBSA solvation                   true          :
          :  PC potential                    false          :
          :  electronic temp.          300.0000000     K    :
          :  accuracy                    1.0000000          :
          :  -> integral cutoff          0.2500000E+02      :
          :  -> integral neglect         0.1000000E-07      :
          :  -> SCF convergence          0.1000000E-05 Eh   :
          :  -> wf. convergence          0.1000000E-03 e    :
          :  Broyden damping             0.4000000          :
          :  net charge                         -2          :
          :  unpaired electrons                  0          :
          ...................................................

 iter      E             dE          RMSdq      gap      omega  full diag
   1   -223.1196697 -0.223120E+03  0.436E+00    2.38       0.0  T
   2   -222.8075954  0.312074E+00  0.302E+00    0.11       1.0  T
   3   -223.5261439 -0.718549E+00  0.217E+00    0.73       1.0  T
   4   -223.8492058 -0.323062E+00  0.115E+00    0.85       1.0  T
   5   -223.8855731 -0.363674E-01  0.657E-01    0.17       1.0  T
   6   -222.9805160  0.905057E+00  0.222E+00    0.35       1.0  T
   7   -223.0024239 -0.219079E-01  0.219E+00    0.24       1.0  T
   8   -223.0110857 -0.866183E-02  0.217E+00    0.22       1.0  T
   9   -223.8793519 -0.868266E+00  0.507E-01    0.45       1.0  T
  10   -223.8802914 -0.939497E-03  0.503E-01    0.44       1.0  T
  11   -223.8732671  0.702433E-02  0.568E-01    0.41       1.0  T
  12   -223.8663644  0.690271E-02  0.640E-01    0.38       1.0  T
  13   -223.8655272  0.837169E-03  0.659E-01    0.29       1.0  T
  14   -223.8880044 -0.224772E-01  0.583E-01    0.10       1.0  T
  15   -223.8721013  0.159030E-01  0.614E-01    0.24       1.0  T
  16   -223.8808637 -0.876238E-02  0.555E-01    0.06       1.0  T
  17   -223.7610607  0.119803E+00  0.921E-01    0.01       1.0  T
  18   -223.6796386  0.814221E-01  0.109E+00    0.01       1.0  T
  19   -223.6795267  0.111922E-03  0.109E+00    0.01       1.0  T
  20   -223.4962338  0.183293E+00  0.142E+00    0.05       1.0  T
  21   -223.5188745 -0.226406E-01  0.138E+00    0.04       1.0  T
  22   -223.6063651 -0.874906E-01  0.120E+00    0.03       1.0  T
  23   -223.9119268 -0.305562E+00  0.190E-01    0.07       1.0  T
  24   -223.9168876 -0.496086E-02  0.116E-01    0.09       1.0  T
  25   -223.6551119  0.261776E+00  0.117E+00    0.02       1.0  T
  26   -223.8943507 -0.239239E+00  0.403E-01    0.16       1.0  T
  27   -223.9025906 -0.823990E-02  0.329E-01    0.13       1.0  T
  28   -223.9045855 -0.199489E-02  0.298E-01    0.13       1.0  T
  29   -223.9045131  0.724148E-04  0.293E-01    0.13       1.0  T
  30   -223.9092442 -0.473117E-02  0.241E-01    0.11       1.0  T
  31   -223.9076572  0.158700E-02  0.254E-01    0.13       1.0  T
  32   -223.9100471 -0.238989E-02  0.226E-01    0.12       1.0  T
  33   -223.9109927 -0.945572E-03  0.215E-01    0.12       1.0  T
  34   -223.9150624 -0.406973E-02  0.158E-01    0.11       1.0  T
  35   -223.9178894 -0.282703E-02  0.101E-01    0.11       1.0  T
  36   -223.9147980  0.309142E-02  0.162E-01    0.08       1.0  T
  37   -223.9125962  0.220180E-02  0.202E-01    0.11       1.0  T
  38   -223.8610739  0.515223E-01  0.554E-01    0.03       1.0  T
  39   -223.9071258 -0.460519E-01  0.279E-01    0.12       1.0  T
  40   -223.9145488 -0.742306E-02  0.178E-01    0.11       1.0  T
  41   -223.9159477 -0.139892E-02  0.147E-01    0.10       1.0  T
  42   -223.9194682 -0.352048E-02  0.386E-02    0.10       1.0  T
  43   -223.9186709  0.797372E-03  0.778E-02    0.11       1.0  T
  44   -223.9081850  0.104859E-01  0.248E-01    0.07       1.0  T
  45   -223.9136994 -0.551437E-02  0.185E-01    0.11       1.0  T
  46   -223.9190697 -0.537030E-02  0.607E-02    0.09       1.0  T
  47   -223.9160231  0.304660E-02  0.144E-01    0.11       1.0  T
  48   -223.9094549  0.656819E-02  0.233E-01    0.07       1.0  T
  49   -223.9146774 -0.522256E-02  0.169E-01    0.11       1.0  T
  50   -223.9195329 -0.485549E-02  0.358E-02    0.10       1.0  T
  51   -223.9175908  0.194217E-02  0.109E-01    0.11       1.0  T
  52   -223.9162174  0.137340E-02  0.137E-01    0.08       1.0  T
  53   -223.9167480 -0.530634E-03  0.128E-01    0.11       1.0  T
  54   -223.9183445 -0.159649E-02  0.875E-02    0.09       1.0  T
  55   -223.9180463  0.298186E-03  0.968E-02    0.11       1.0  T
  56   -223.9186817 -0.635428E-03  0.767E-02    0.09       1.0  T
  57   -223.9187330 -0.513144E-04  0.752E-02    0.11       1.0  T
  58   -223.9192156 -0.482607E-03  0.553E-02    0.09       1.0  T
  59   -223.9193084 -0.927361E-04  0.508E-02    0.11       1.0  T
  60   -223.9195580 -0.249666E-03  0.353E-02    0.10       1.0  T
  61   -223.9196272 -0.691276E-04  0.296E-02    0.10       1.0  T
  62   -223.9197225 -0.953492E-04  0.192E-02    0.10       1.0  T
  63   -223.9197516 -0.290802E-04  0.146E-02    0.10       1.0  T
  64   -223.9197772 -0.256440E-04  0.884E-03    0.10       1.0  T
  65   -223.9197849 -0.765235E-05  0.611E-03    0.10       1.3  T
  66   -223.9197899 -0.495922E-05  0.333E-03    0.10       2.4  T
  67   -223.9197913 -0.146761E-05  0.180E-03    0.10       4.5  T
  68   -223.9197919 -0.574951E-06  0.448E-04    0.10      18.0  T
  69   -223.9197919 -0.360524E-07  0.911E-05    0.10      88.8  T

   *** convergence criteria satisfied after 69 iterations ***

         #    Occupation            Energy/Eh            Energy/eV
      -------------------------------------------------------------
         1        2.0000           -0.6882695             -18.7288
       ...           ...                  ...                  ...
       191        2.0000           -0.3206900              -8.7264
       192        2.0000           -0.3183008              -8.6614
       193        2.0000           -0.3020681              -8.2197
       194        2.0000           -0.2894638              -7.8767
       195        2.0000           -0.2842230              -7.7341
       196        2.0000           -0.2726401              -7.4189
       197        1.6152           -0.2482010              -6.7539 (HOMO)
       198        0.1362           -0.2443526              -6.6492 (LUMO)
       199        0.1326           -0.2443252              -6.6484
       200        0.1082           -0.2441201              -6.6428
       201        0.0079           -0.2415802              -6.5737
       202                         -0.2016637              -5.4875
       ...                                ...                  ...
       357                          0.8488426              23.0982
      -------------------------------------------------------------
                  HL-Gap            0.0038484 Eh            0.1047 eV
             Fermi-level           -0.2468383 Eh           -6.7168 eV

 SCC (total)                   0 d,  0 h,  0 min,  1.205 sec
 SCC setup                      ...        0 min,  0.002 sec (  0.131%)
 Dispersion                     ...        0 min,  0.003 sec (  0.268%)
 classical contributions        ...        0 min,  0.000 sec (  0.015%)
 integral evaluation            ...        0 min,  0.007 sec (  0.544%)
 iterations                     ...        0 min,  1.172 sec ( 97.288%)
 molecular gradient             ...        0 min,  0.020 sec (  1.676%)
 printout                       ...        0 min,  0.001 sec (  0.077%)

         :::::::::::::::::::::::::::::::::::::::::::::::::::::
         ::                     SUMMARY                     ::
         :::::::::::::::::::::::::::::::::::::::::::::::::::::
         :: total energy            -220.526926384643 Eh    ::
         :: total w/o Gsasa/hb      -220.458783181863 Eh    ::
         :: gradient norm              0.804834102424 Eh/a0 ::
         :: HOMO-LUMO gap              0.104721058104 eV    ::
         ::.................................................::
         :: SCC energy              -223.909973596347 Eh    ::
         :: -> isotropic ES            0.821854290396 Eh    ::
         :: -> anisotropic ES          0.061719268525 Eh    ::
         :: -> anisotropic XC          0.121767101322 Eh    ::
         :: -> dispersion             -0.162877099344 Eh    ::
         :: -> Gsolv                  -0.290722158329 Eh    ::
         ::    -> Gelec               -0.222578955549 Eh    ::
         ::    -> Gsasa               -0.061082752715 Eh    ::
         ::    -> Ghb                 -0.012013887642 Eh    ::
         ::    -> Gshift               0.004953437577 Eh    ::
         :: repulsion energy           3.383047211704 Eh    ::
         :: add. restraining           0.000000000000 Eh    ::
         :: total charge              -2.000000000015 e     ::
         :::::::::::::::::::::::::::::::::::::::::::::::::::::

           -------------------------------------------------
          |                Property Printout                |
           -------------------------------------------------

    * Orbital Energies and Occupations

         #    Occupation            Energy/Eh            Energy/eV
      -------------------------------------------------------------
         1        2.0000           -0.6882695             -18.7288
       ...           ...                  ...                  ...
       185        2.0000           -0.3525845              -9.5943
       186        2.0000           -0.3479891              -9.4693
       187        2.0000           -0.3417334              -9.2990
       188        2.0000           -0.3380075              -9.1977
       189        2.0000           -0.3364015              -9.1539
       190        2.0000           -0.3286907              -8.9441
       191        2.0000           -0.3206900              -8.7264
       192        2.0000           -0.3183008              -8.6614
       193        2.0000           -0.3020681              -8.2197
       194        2.0000           -0.2894638              -7.8767
       195        2.0000           -0.2842230              -7.7341
       196        2.0000           -0.2726401              -7.4189
       197        1.6152           -0.2482010              -6.7539 (HOMO)
       198        0.1362           -0.2443526              -6.6492 (LUMO)
       199        0.1326           -0.2443252              -6.6484
       200        0.1082           -0.2441201              -6.6428
       201        0.0079           -0.2415802              -6.5737
       202                         -0.2016637              -5.4875
       203                         -0.1966100              -5.3500
       204                         -0.1883256              -5.1246
       205                         -0.1807904              -4.9196
       206                         -0.1796379              -4.8882
       207                         -0.1712714              -4.6605
       208                         -0.1657838              -4.5112
       ...                                ...                  ...
       357                          0.8488426              23.0982
      -------------------------------------------------------------
                  HL-Gap            0.0038484 Eh            0.1047 eV
             Fermi-level           -0.2468383 Eh           -6.7168 eV

     #   Z          covCN         q      C6AA      α(0)
     1   7 N        2.629    -0.379    29.784     8.105
     2   6 C        3.787     0.038    19.951     6.362
     3   6 C        2.763     0.179    24.158     8.049
     4   8 O        0.856    -0.410    21.873     6.270
     5   6 C        3.805    -0.054    21.537     6.607
     6   6 C        3.806    -0.097    22.354     6.731
     7   6 C        2.740     0.277    22.310     7.734
     8   8 O        0.857    -0.501    23.802     6.541
     9   7 N        2.638    -0.268    26.932     7.707
    10   7 N        2.625    -0.369    29.514     8.068
    11   6 C        3.776     0.038    19.964     6.366
    12   6 C        2.761     0.180    24.136     8.045
    13   8 O        0.856    -0.399    21.660     6.240
    14   6 C        3.794    -0.074    21.921     6.667
    15   6 C        3.841    -0.019    20.883     6.501
    16   6 C        3.760    -0.112    22.696     6.792
    17   6 C        3.760    -0.103    22.525     6.766
    18   7 N        2.693    -0.274    27.078     7.728
    19   6 C        3.793     0.035    19.997     6.368
    20   6 C        2.762     0.177    24.193     8.055
    21   8 O        0.856    -0.385    21.386     6.200
    22   6 C        3.813    -0.060    21.636     6.621
    23   6 C        3.810    -0.055    21.561     6.610
    24   6 C        3.748     0.012    20.442     6.449
    25   7 N        2.638    -0.371    29.585     8.078
    26   6 C        3.796     0.043    19.853     6.345
    27   6 C        2.762     0.265    22.528     7.773
    28   8 O        0.858    -0.508    23.968     6.564
    29   6 C        3.825    -0.071    21.839     6.650
    30   6 C        2.975    -0.011    28.291     8.725
    31   6 C        2.926    -0.038    28.951     8.824
    32   6 C        2.927    -0.047    29.157     8.855
    33   6 C        2.906    -0.072    29.786     8.949
    34   6 C        2.919    -0.063    29.570     8.917
    35   6 C        2.858     0.142    24.901     8.179
    36   8 O        1.663    -0.437    21.585     6.272
    37   7 N        2.682    -0.185    25.018     7.429
    38   6 C        3.792     0.021    20.223     6.404
    39   6 C        2.752     0.267    22.486     7.765
    40   8 O        0.857    -0.501    23.800     6.541
    41   6 C        3.820    -0.073    21.880     6.657
    42   6 C        3.848    -0.017    20.839     6.493
    43   6 C        3.766    -0.120    22.844     6.812
    44   6 C        3.753    -0.106    22.587     6.777
    45   7 N        2.684    -0.180    24.909     7.412
    46   6 C        3.788     0.023    20.205     6.402
    47   6 C        2.747     0.278    22.287     7.730
    48   8 O        0.859    -0.482    23.394     6.485
    49   6 C        3.757    -0.126    22.977     6.834
    50   7 N        2.688    -0.184    24.993     7.425
    51   6 C        3.789     0.028    20.116     6.388
    52   6 C        2.747     0.276    22.331     7.738
    53   8 O        0.858    -0.495    23.679     6.524
    54   6 C        3.820    -0.044    21.347     6.575
    55   6 C        3.808    -0.085    22.111     6.694
    56   6 C        2.689     0.354    20.992     7.498
    57   8 O        0.856    -0.646    27.270     7.001
    58   8 O        0.856    -0.644    27.220     6.995
    59   7 N        2.681    -0.159    24.443     7.343
    60   6 C        3.780     0.035    20.003     6.372
    61   6 C        2.757     0.199    23.752     7.981
    62   8 O        0.856    -0.361    20.910     6.131
    63   6 C        3.806    -0.075    21.925     6.666
    64   6 C        3.066     0.029    27.298     8.567
    65   7 N        1.979    -0.399    31.273     8.293
    66   6 C        3.042    -0.044    29.049     8.840
    67   6 C        2.085    -0.118    34.175     9.444
    68   7 N        2.826    -0.119    23.591     7.214
    69   1 H        0.980     0.021     2.713     2.574
    70   1 H        0.980    -0.012     3.260     2.821
    71   1 H        0.980     0.007     2.929     2.674
    72   1 H        0.980    -0.015     3.326     2.850
    73   1 H        0.980     0.015     2.795     2.613
    74   1 H        0.980     0.015     2.805     2.617
    75   1 H        0.980    -0.012     3.257     2.820
    76   1 H        0.860     0.155     1.366     1.831
    77   1 H        0.860     0.161     1.328     1.805
    78   1 H        0.927     0.033     2.537     2.491
    79   1 H        0.929     0.047     2.354     2.399
    80   1 H        0.927     0.048     2.344     2.394
    81   1 H        0.927     0.063     2.164     2.300
    82   1 H        0.927     0.068     2.108     2.270
    83   1 H        0.927     0.073     2.053     2.241
    84   1 H        0.861     0.225     0.985     1.554
    85   1 H        0.861     0.210     1.054     1.608
    86   1 H        0.860     0.152     1.384     1.843
    87   1 H        0.860     0.161     1.326     1.804
    88   1 H        0.927     0.017     2.784     2.609
    89   1 H        0.929     0.033     2.548     2.496
    90   1 H        0.927     0.057     2.236     2.338
    91   1 H        0.927     0.046     2.366     2.405
    92   1 H        0.927     0.026     2.650     2.545
    93   1 H        0.926     0.043     2.411     2.428
    94   1 H        0.927     0.032     2.553     2.498
    95   1 H        0.926     0.039     2.464     2.455
    96   1 H        0.927     0.042     2.422     2.434
    97   1 H        0.926     0.038     2.472     2.459
    98   1 H        0.927     0.034     2.533     2.489
    99   1 H        0.860     0.145     1.433     1.875
   100   1 H        0.927     0.026     2.643     2.542
   101   1 H        0.929     0.037     2.483     2.464
   102   1 H        0.926     0.039     2.457     2.451
   103   1 H        0.926     0.050     2.318     2.381
   104   1 H        0.927     0.036     2.499     2.472
   105   1 H        0.927     0.034     2.530     2.487
   106   1 H        0.927     0.039     2.464     2.455
   107   1 H        0.927     0.029     2.599     2.521
   108   1 H        0.860     0.147     1.422     1.868
   109   1 H        0.860     0.167     1.294     1.782
   110   1 H        0.926     0.034     2.531     2.488
   111   1 H        0.926     0.058     2.222     2.331
   112   1 H        0.927     0.055     2.255     2.348
   113   1 H        0.929     0.041     2.431     2.438
   114   1 H        0.929     0.040     2.448     2.447
   115   1 H        0.929     0.049     2.333     2.389
   116   1 H        0.929     0.046     2.368     2.406
   117   1 H        0.807     0.346     0.597     1.214
   118   1 H        0.861     0.222     1.002     1.568
   119   1 H        0.927     0.078     2.005     2.214
   120   1 H        0.926     0.066     2.135     2.285
   121   1 H        0.927     0.059     2.209     2.324
   122   1 H        0.927     0.038     2.476     2.461
   123   1 H        0.927     0.044     2.399     2.422
   124   1 H        0.927     0.045     2.377     2.411
   125   1 H        0.927     0.048     2.341     2.393
   126   1 H        0.927     0.039     2.457     2.451
   127   1 H        0.926     0.040     2.451     2.448
   128   1 H        0.927     0.033     2.539     2.492
   129   1 H        0.861     0.215     1.034     1.593
   130   1 H        0.927     0.084     1.941     2.178
   131   1 H        0.927     0.057     2.240     2.340
   132   1 H        0.927     0.073     2.056     2.242
   133   1 H        0.927     0.074     2.044     2.236
   134   1 H        0.861     0.201     1.103     1.645
   135   1 H        0.927     0.075     2.033     2.230
   136   1 H        0.927     0.049     2.333     2.389
   137   1 H        0.927     0.057     2.230     2.335
   138   1 H        0.926     0.028     2.609     2.526
   139   1 H        0.926     0.029     2.601     2.522
   140   1 H        0.861     0.201     1.101     1.644
   141   1 H        0.927     0.084     1.940     2.178
   142   1 H        0.929     0.074     2.037     2.232
   143   1 H        0.927     0.042     2.426     2.436
   144   1 H        0.927     0.066     2.126     2.280
   145   1 H        0.929    -0.028     3.585     2.961
   146   1 H        0.980    -0.019     3.403     2.883
   147   1 H        0.980     0.012     2.850     2.638
   148   1 H        0.980    -0.009     3.216     2.802
   149   1 H        0.980     0.020     2.718     2.576
   150   1 H        0.980    -0.016     3.341     2.856
   151   1 H        0.980    -0.015     3.328     2.851
   152   1 H        0.980     0.011     2.869     2.647
   153   1 H        0.858     0.125     1.586     1.973

 Mol. C6AA /au·bohr⁶  :     209140.687137
 Mol. C8AA /au·bohr⁸  :    4531623.045094
 Mol. α(0) /au        :        689.827096


Wiberg/Mayer (AO) data.
largest (>0.10) Wiberg bond orders for each atom

 ---------------------------------------------------------------------------
     #   Z sym  total        # sym  WBO       # sym  WBO       # sym  WBO
 ---------------------------------------------------------------------------
     1   7 N    2.980 --     2 C    1.010    76 H    0.963    77 H    0.959
     2   6 C    3.986 --     1 N    1.010     3 C    0.974     5 C    0.971
                            78 H    0.954
     3   6 C    3.780 --     4 O    1.801     2 C    0.974    79 H    0.951
     4   8 O    1.934 --     3 C    1.801
     5   6 C    3.986 --     6 C    1.003    80 H    0.978     2 C    0.971
                            81 H    0.969
     6   6 C    3.995 --     5 C    1.003     7 C    0.965    83 H    0.962
                            82 H    0.961
     7   6 C    3.941 --     8 O    1.641     9 N    1.306     6 C    0.965
     8   8 O    1.942 --     7 C    1.641     9 N    0.196
     9   7 N    3.402 --     7 C    1.306    85 H    0.932    84 H    0.932
                             8 O    0.196
    10   7 N    2.973 --    11 C    0.992    86 H    0.964    87 H    0.960
    11   6 C    3.985 --    10 N    0.992    12 C    0.976    14 C    0.972
                            88 H    0.969
    12   6 C    3.783 --    13 O    1.810    11 C    0.976    89 H    0.954
    13   8 O    1.933 --    12 C    1.810
    14   6 C    3.986 --    15 C    0.983    90 H    0.979    91 H    0.978
                            11 C    0.972
    15   6 C    3.991 --    16 C    1.010    17 C    1.008    14 C    0.983
                            92 H    0.972
    16   6 C    3.997 --    15 C    1.010    93 H    0.987    94 H    0.984
                            95 H    0.979
    17   6 C    3.995 --    15 C    1.008    98 H    0.988    96 H    0.987
                            97 H    0.983
    18   7 N    3.047 --    19 C    1.003    24 C    0.991    99 H    0.963
    19   6 C    3.989 --    18 N    1.003    22 C    0.969    20 C    0.968
                           100 H    0.965
    20   6 C    3.810 --    21 O    1.830    19 C    0.968   101 H    0.952
    21   8 O    1.963 --    20 C    1.830
    22   6 C    3.986 --    23 C    0.985   102 H    0.983   103 H    0.972
                            19 C    0.969
    23   6 C    3.995 --    24 C    1.016    22 C    0.985   104 H    0.984
                           105 H    0.978
    24   6 C    3.986 --    23 C    1.016    18 N    0.991   107 H    0.979
                           106 H    0.974
    25   7 N    2.989 --    26 C    1.011   108 H    0.962   109 H    0.955
    26   6 C    3.983 --    25 N    1.011   110 H    0.959    27 C    0.953
                            29 C    0.952
    27   6 C    3.943 --    28 O    1.622    37 N    1.299    26 C    0.953
    28   8 O    1.941 --    27 C    1.622    37 N    0.194
    29   6 C    3.995 --    30 C    1.026   111 H    0.969   112 H    0.966
                            26 C    0.952
    30   6 C    3.988 --    31 C    1.405    32 C    1.378    29 C    1.026
                            35 C    0.107
    31   6 C    3.992 --    33 C    1.449    30 C    1.405   113 H    0.970
                            34 C    0.105
    32   6 C    3.994 --    34 C    1.502    30 C    1.378   114 H    0.967
    33   6 C    3.989 --    31 C    1.449    35 C    1.387   115 H    0.969
    34   6 C    3.990 --    32 C    1.502    35 C    1.325   116 H    0.971
                            31 C    0.105
    35   6 C    3.934 --    33 C    1.387    34 C    1.325    36 O    1.075
                            30 C    0.107
    36   8 O    2.092 --    35 C    1.075   117 H    0.859
    37   7 N    3.453 --    27 C    1.299    38 C    0.962   118 H    0.920
                            28 O    0.194
    38   6 C    3.961 --    41 C    0.981    37 N    0.962   119 H    0.950
                            39 C    0.936
    39   6 C    3.948 --    40 O    1.624    45 N    1.308    38 C    0.936
    40   8 O    1.941 --    39 C    1.624    45 N    0.195
    41   6 C    3.987 --    42 C    0.993    38 C    0.981   121 H    0.972
                           120 H    0.969
    42   6 C    3.994 --    43 C    1.010    44 C    1.001    41 C    0.993
                           122 H    0.971
    43   6 C    3.994 --    42 C    1.010   125 H    0.985   123 H    0.984
                           124 H    0.984
    44   6 C    3.996 --    42 C    1.001   126 H    0.984   128 H    0.983
                           127 H    0.981
    45   7 N    3.464 --    39 C    1.308    46 C    0.963   129 H    0.923
                            40 O    0.195
    46   6 C    3.959 --    49 C    0.996    45 N    0.963   130 H    0.955
                            47 C    0.930
    47   6 C    3.948 --    48 O    1.649    50 N    1.298    46 C    0.930
    48   8 O    1.966 --    47 C    1.649    50 N    0.199
    49   6 C    3.985 --    46 C    0.996   131 H    0.986   132 H    0.981
                           133 H    0.980
    50   7 N    3.472 --    47 C    1.298    51 C    0.973   134 H    0.912
                            48 O    0.199
    51   6 C    3.959 --    50 N    0.973    54 C    0.971   135 H    0.954
                            52 C    0.931
    52   6 C    3.945 --    53 O    1.631    59 N    1.304    51 C    0.931
    53   8 O    1.941 --    52 C    1.631    59 N    0.188
    54   6 C    3.990 --    55 C    1.004   136 H    0.975    51 C    0.971
                           137 H    0.961
    55   6 C    3.990 --    54 C    1.004   138 H    0.978   139 H    0.965
                            56 C    0.937
    56   6 C    3.940 --    58 O    1.499    57 O    1.482    55 C    0.937
    57   8 O    1.778 --    56 C    1.482    58 O    0.218
    58   8 O    1.784 --    56 C    1.499    57 O    0.218
    59   7 N    3.465 --    52 C    1.304    60 C    0.966   140 H    0.925
                            53 O    0.188
    60   6 C    3.962 --    61 C    0.976    63 C    0.968    59 N    0.966
                           141 H    0.932
    61   6 C    3.891 --    62 O    1.897    60 C    0.976   142 H    0.948
    62   8 O    2.043 --    61 C    1.897
    63   6 C    3.983 --    64 C    1.000   144 H    0.972    60 C    0.968
                           143 H    0.965
    64   6 C    3.937 --    66 C    1.576    65 N    1.239    63 C    1.000
    65   7 N    2.929 --    67 C    1.514    64 C    1.239
    66   6 C    3.910 --    64 C    1.576    68 N    1.152   145 H    0.970
                            67 C    0.113
    67   6 C    2.946 --    65 N    1.514    68 N    1.270    66 C    0.113
    68   7 N    3.514 --    67 C    1.270    66 C    1.152   153 H    0.949
    69   1 H    1.000 --   146 H    0.984
    70   1 H    1.000 --   147 H    0.974
    71   1 H    1.000 --   148 H    0.988
    72   1 H    1.000 --   149 H    0.947
    73   1 H    1.000 --   150 H    0.956
    74   1 H    1.000 --   151 H    0.971
    75   1 H    1.000 --   152 H    0.972
    76   1 H    0.976 --     1 N    0.963
    77   1 H    0.974 --     1 N    0.959
    78   1 H    0.996 --     2 C    0.954
    79   1 H    0.998 --     3 C    0.951
    80   1 H    0.998 --     5 C    0.978
    81   1 H    0.995 --     5 C    0.969
    82   1 H    0.995 --     6 C    0.961
    83   1 H    0.995 --     6 C    0.962
    84   1 H    0.949 --     9 N    0.932
    85   1 H    0.955 --     9 N    0.932
    86   1 H    0.976 --    10 N    0.964
    87   1 H    0.973 --    10 N    0.960
    88   1 H    1.000 --    11 C    0.969
    89   1 H    0.999 --    12 C    0.954
    90   1 H    0.997 --    14 C    0.979
    91   1 H    0.998 --    14 C    0.978
    92   1 H    0.999 --    15 C    0.972
    93   1 H    0.998 --    16 C    0.987
    94   1 H    0.999 --    16 C    0.984
    95   1 H    0.998 --    16 C    0.979
    96   1 H    0.998 --    17 C    0.987
    97   1 H    0.998 --    17 C    0.983
    98   1 H    0.999 --    17 C    0.988
    99   1 H    0.979 --    18 N    0.963
   100   1 H    0.998 --    19 C    0.965
   101   1 H    0.998 --    20 C    0.952
   102   1 H    0.998 --    22 C    0.983
   103   1 H    0.997 --    22 C    0.972
   104   1 H    0.999 --    23 C    0.984
   105   1 H    0.999 --    23 C    0.978
   106   1 H    0.998 --    24 C    0.974
   107   1 H    0.999 --    24 C    0.979
   108   1 H    0.978 --    25 N    0.962
   109   1 H    0.972 --    25 N    0.955
   110   1 H    0.999 --    26 C    0.959
   111   1 H    0.996 --    29 C    0.969
   112   1 H    0.996 --    29 C    0.966
   113   1 H    0.998 --    31 C    0.970
   114   1 H    0.998 --    32 C    0.967
   115   1 H    0.997 --    33 C    0.969
   116   1 H    0.998 --    34 C    0.971
   117   1 H    0.880 --    36 O    0.859
   118   1 H    0.951 --    37 N    0.920
   119   1 H    0.994 --    38 C    0.950
   120   1 H    0.995 --    41 C    0.969
   121   1 H    0.996 --    41 C    0.972
   122   1 H    0.998 --    42 C    0.971
   123   1 H    0.998 --    43 C    0.984
   124   1 H    0.998 --    43 C    0.984
   125   1 H    0.997 --    43 C    0.985
   126   1 H    0.998 --    44 C    0.984
   127   1 H    0.998 --    44 C    0.981
   128   1 H    0.999 --    44 C    0.983
   129   1 H    0.954 --    45 N    0.923
   130   1 H    0.993 --    46 C    0.955
   131   1 H    0.997 --    49 C    0.986
   132   1 H    0.994 --    49 C    0.981
   133   1 H    0.994 --    49 C    0.980
   134   1 H    0.960 --    50 N    0.912
   135   1 H    0.994 --    51 C    0.954
   136   1 H    0.998 --    54 C    0.975
   137   1 H    0.997 --    54 C    0.961
   138   1 H    0.999 --    55 C    0.978
   139   1 H    0.998 --    55 C    0.965
   140   1 H    0.960 --    59 N    0.925
   141   1 H    0.992 --    60 C    0.932
   142   1 H    0.994 --    61 C    0.948
   143   1 H    0.998 --    63 C    0.965
   144   1 H    0.995 --    63 C    0.972
   145   1 H    0.999 --    66 C    0.970
   146   1 H    0.999 --    69 H    0.984
   147   1 H    1.000 --    70 H    0.974
   148   1 H    1.000 --    71 H    0.988
   149   1 H    0.999 --    72 H    0.947
   150   1 H    1.000 --    73 H    0.956
   151   1 H    1.000 --    74 H    0.971
   152   1 H    1.000 --    75 H    0.972
   153   1 H    0.984 --    68 N    0.949
 ---------------------------------------------------------------------------

Topologies differ in total number of bonds
Writing topology from bond orders to xtbtopo.mol

molecular dipole:
                 x           y           z       tot (Debye)
 q only:      -19.231    -141.344      66.199
   full:      -19.662    -142.409      66.664     402.777
molecular quadrupole (traceless):
                xx          xy          yy          xz          yz          zz
 q only:     5794.580   -2094.077   -8752.428     892.922    7031.668    2957.848
  q+dip:     5887.196   -2138.122   -8887.832     931.984    7129.125    3000.636
   full:     5884.881   -2138.604   -8886.030     932.906    7128.934    3001.149


           -------------------------------------------------
          | TOTAL ENERGY             -220.526926384643 Eh   |
          | GRADIENT NORM               0.804834102424 Eh/α |
          | HOMO-LUMO GAP               0.104721058104 eV   |
           -------------------------------------------------
########################################################################
[WARNING] Runtime exception occurred
-2- restart_readRestart: Dimension missmatch in restart file.
-1- restart_readRestart: Number of electron missmatch in restart file.
########################################################################

------------------------------------------------------------------------
 * finished run on 2025/05/05 at 16:49:24.896     
------------------------------------------------------------------------
 total:
 * wall-time:     0 d,  0 h,  0 min,  1.219 sec
 *  cpu-time:     0 d,  0 h,  0 min, 37.359 sec
 * ratio c/w:    30.651 speedup
 SCF:
 * wall-time:     0 d,  0 h,  0 min,  1.206 sec
 *  cpu-time:     0 d,  0 h,  0 min, 37.039 sec
 * ratio c/w:    30.715 speedup

