      -----------------------------------------------------------      
     |                   =====================                   |     
     |                           x T B                           |     
     |                   =====================                   |     
     |                         S. Grimme                         |     
     |          Mulliken Center for Theoretical Chemistry        |     
     |                    University of Bonn                     |     
      -----------------------------------------------------------      

   * xtb version 6.7.1 (edcfbbe) compiled by 'conda@afd1a870197c' on 2025-04-11

   xtb is free software: you can redistribute it and/or modify it under
   the terms of the GNU Lesser General Public License as published by
   the Free Software Foundation, either version 3 of the License, or
   (at your option) any later version.
   
   xtb is distributed in the hope that it will be useful,
   but WITHOUT ANY WARRANTY; without even the implied warranty of
   MERCHANTABILITY or FITNESS FOR A PARTICULAR PURPOSE.  See the
   GNU Lesser General Public License for more details.
   
   Cite this work as:
   * C. Bannwarth, E. Caldeweyher, S. Ehlert, A. Hansen, P. Pracht,
     J. Seibert, S. Spicher, S. Grimme, WIREs Comput. Mol. Sci., 2020, 11,
     e01493. DOI: 10.1002/wcms.1493
   
   for GFN2-xTB:
   * C. Bannwarth, S. Ehlert and S. Grimme., J. Chem. Theory Comput., 2019,
     15, 1652-1671. DOI: 10.1021/acs.jctc.8b01176
   for GFN1-xTB:
   * S. Grimme, C. Bannwarth, P. Shushkov, J. Chem. Theory Comput., 2017,
     13, 1989-2009. DOI: 10.1021/acs.jctc.7b00118
   for GFN0-xTB:
   * P. Pracht, E. Caldeweyher, S. Ehlert, S. Grimme, ChemRxiv, 2019, preprint.
     DOI: 10.26434/chemrxiv.8326202.v1
   for GFN-FF:
   * S. Spicher and S. Grimme, Angew. Chem. Int. Ed., 2020, 59, 15665-15673.
     DOI: 10.1002/anie.202004239
   
   for ALPB and GBSA implicit solvation:
   * S. Ehlert, M. Stahn, S. Spicher, S. Grimme, J. Chem. Theory Comput.,
     2021, 17, 4250-4261. DOI: 10.1021/acs.jctc.1c00471
   
   for ddCOSMO and CPCM-X implicit solvation:
   * M. Stahn, S. Ehlert, S. Grimme, J. Phys. Chem. A,
     2023, XX, XXXX-XXXX. DOI: 10.1021/acs.jpca.3c04382
   
   for DFT-D4:
   * E. Caldeweyher, C. Bannwarth and S. Grimme, J. Chem. Phys., 2017,
     147, 034112. DOI: 10.1063/1.4993215
   * E. Caldeweyher, S. Ehlert, A. Hansen, H. Neugebauer, S. Spicher,
     C. Bannwarth and S. Grimme, J. Chem. Phys., 2019, 150, 154122.
     DOI: 10.1063/1.5090222
   * E. Caldeweyher, J.-M. Mewes, S. Ehlert and S. Grimme, Phys. Chem. Chem. Phys.
     2020, 22, 8499-8512. DOI: 10.1039/D0CP00502A
   
   for sTDA-xTB:
   * S. Grimme and C. Bannwarth, J. Chem. Phys., 2016, 145, 054103.
     DOI: 10.1063/1.4959605
   
   in the mass-spec context:
   * V. Asgeirsson, C. Bauer and S. Grimme, Chem. Sci., 2017, 8, 4879.
     DOI: 10.1039/c7sc00601b
   * J. Koopman and S. Grimme, ACS Omega 2019, 4, 12, 15120-15133.
     DOI: 10.1021/acsomega.9b02011
   
   for metadynamics refer to:
   * S. Grimme, J. Chem. Theory Comput., 2019, 155, 2847-2862
     DOI: 10.1021/acs.jctc.9b00143
   
   for SPH calculations refer to:
   * S. Spicher and S. Grimme, J. Chem. Theory Comput., 2021, 17, 1701-1714
     DOI: 10.1021/acs.jctc.0c01306
   
   for ONIOM refer to:
   * C. Plett, A. Katbashev, S. Ehlert, S. Grimme, M. Bursch,
     Phys. Chem. Chem. Phys., 2023, 25, 17860-17868. DOI: 10.1039/D3CP02178E
   
   for DIPRO refer to:
   * J. Kohn, N. Gildemeister, S. Grimme, D. Fazzi, A. Hansen,
     J. Chem. Phys., 2023, just accepted.
   
   for PTB refer to:
   * S. Grimme, M. Mueller, A. Hansen, J. Chem. Phys., 2023, 158, 124111.
     DOI: 10.1063/5.0137838
   
   with help from (in alphabetical order)
   P. Atkinson, C. Bannwarth, F. Bohle, G. Brandenburg, E. Caldeweyher
   M. Checinski, S. Dohm, S. Ehlert, S. Ehrlich, I. Gerasimov, C. Hölzer
   A. Katbashev, J. Kohn, J. Koopman, C. Lavigne, S. Lehtola, F. März, M. Müller,
   F. Musil, H. Neugebauer, J. Pisarek, C. Plett, P. Pracht, F. Pultar,
   J. Seibert, P. Shushkov, S. Spicher, M. Stahn, M. Steiner, T. Strunk,
   J. Stückrath, T. Rose, and J. Unsleber
   
 * started run on 2025/05/05 at 16:41:05.340     
   ID    Z sym.   atoms
    1    7 N      1, 9, 16, 17, 24, 26-28, 36, 37, 42, 51, 57, 60, 61, 69,
                  75, 78
    2    6 C      2, 3, 5-8, 10, 11, 13, 14, 18, 19, 21-23, 25, 29, 30,
                  32-34, 38, 39, 41, 43, 44, 46-48, 52, 53, 55, 56, 58, 59,
                  62, 63, 65-68, 70, 71, 73, 74, 76, 77
    3    8 O      4, 12, 15, 20, 31, 35, 40, 45, 49, 50, 54, 64, 72
    4    1 H      79-157

           -------------------------------------------------
          |                Calculation Setup                |
           -------------------------------------------------

          program call               : xtb /tmp/tmp_df46w9f/HIE/input.xyz --alpb ether --chrg 1 --input /tmp/tmp_df46w9f/HIE/constraints.inp --gfn 2
          hostname                   : fedora
          coordinate file            : /tmp/tmp_df46w9f/HIE/input.xyz
          omp threads                :                    32


molecular fragmentation (1/2 indicates fragments):
111111111111111111111111111222222222222222222222222222222222222222222222
222222111111111111111111111111111111122222222222222222222222222222222222
2222222222212
# atoms in fragment 1/2:    59    98
 fragment masses (1/2) :      386.47      717.77
CMA distance (Bohr)    :  14.353
constraining FC (au)   :  0.0500
########################################################################
[WARNING] Please study the warnings concerning your input carefully
-1- readin_getIntValue: could not parse 'S'
########################################################################

           -------------------------------------------------
          |                 G F N 2 - x T B                 |
           -------------------------------------------------

        Reference                      10.1021/acs.jctc.8b01176
      * Hamiltonian:
        H0-scaling (s, p, d)           1.850000    2.230000    2.230000
        zeta-weighting                 0.500000
      * Dispersion:
        s8                             2.700000
        a1                             0.520000
        a2                             5.000000
        s9                             5.000000
      * Repulsion:
        kExp                           1.500000    1.000000
        rExp                           1.000000
      * Coulomb:
        alpha                          2.000000
        third order                    shell-resolved
        anisotropic                    true
        a3                             3.000000
        a5                             4.000000
        cn-shift                       1.200000
        cn-exp                         4.000000
        max-rad                        5.000000

      * Solvation model:               ALPB
        Solvent                        ether
        Parameter file                 internal GFN2-xTB/ALPB
        Dielectric constant                4.3300E+00
        Reference state                gsolv [1 M gas/solution]
        Free energy shift                  4.9534E-03 Eh       3.1083E+00 kcal/mol
        Temperature                        2.9815E+02 K
        Density                            7.1300E-01 kg/L
        Solvent mass                       7.4120E+01 g/mol
        Interaction kernel             P16
        Born radius scaling (c1)           1.5847E+00
        Born radii integrator          GBOBC
        Born offset                        0.0000E+00 a0       0.0000E+00 AA
        H-bond correction              true
        Ion screening                  false
        Surface tension                    1.0000E-05 Eh       1.5569E+01 dyn/cm
        Grid points                               230 per atom

          ...................................................
          :                      SETUP                      :
          :.................................................:
          :  # basis functions                 391          :
          :  # atomic orbitals                 391          :
          :  # shells                          235          :
          :  # electrons                       434          :
          :  max. iterations                   250          :
          :  Hamiltonian                  GFN2-xTB          :
          :  restarted?                      false          :
          :  GBSA solvation                   true          :
          :  PC potential                    false          :
          :  electronic temp.          300.0000000     K    :
          :  accuracy                    1.0000000          :
          :  -> integral cutoff          0.2500000E+02      :
          :  -> integral neglect         0.1000000E-07      :
          :  -> SCF convergence          0.1000000E-05 Eh   :
          :  -> wf. convergence          0.1000000E-03 e    :
          :  Broyden damping             0.4000000          :
          :  net charge                          1          :
          :  unpaired electrons                  0          :
          ...................................................

 iter      E             dE          RMSdq      gap      omega  full diag
   1   -246.3840435 -0.246384E+03  0.471E+00    0.03       0.0  T
   2   -244.3794084  0.200464E+01  0.435E+00    0.52       1.0  T
   3   -247.5285217 -0.314911E+01  0.285E+00    0.10       1.0  T
   4   -248.3879676 -0.859446E+00  0.215E+00    0.19       1.0  T
   5   -247.7926719  0.595296E+00  0.220E+00    0.02       1.0  T
   6   -248.0895445 -0.296873E+00  0.183E+00    0.52       1.0  T
   7   -248.2903310 -0.200786E+00  0.144E+00    0.07       1.0  T
   8   -248.0570279  0.233303E+00  0.175E+00    0.16       1.0  T
   9   -248.7169824 -0.659955E+00  0.113E+00    0.20       1.0  T
  10   -248.4217561  0.295226E+00  0.144E+00    0.00       1.0  T
  11   -248.8001710 -0.378415E+00  0.765E-01    0.04       1.0  T
  12   -248.7654717  0.346993E-01  0.780E-01    0.01       1.0  T
  13   -248.7804606 -0.149888E-01  0.885E-01    0.14       1.0  T
  14   -248.8642730 -0.838125E-01  0.607E-01    0.02       1.0  T
  15   -248.7645347  0.997384E-01  0.882E-01    0.27       1.0  T
  16   -248.8060782 -0.415435E-01  0.626E-01    0.04       1.0  T
  17   -248.7858370  0.202413E-01  0.778E-01    0.21       1.0  T
  18   -248.8124661 -0.266291E-01  0.683E-01    0.12       1.0  T
  19   -248.8297653 -0.172993E-01  0.626E-01    0.11       1.0  T
  20   -248.8968082 -0.670428E-01  0.329E-01    0.02       1.0  T
  21   -248.8931710  0.363716E-02  0.342E-01    0.02       1.0  T
  22   -248.8986114 -0.544044E-02  0.307E-01    0.03       1.0  T
  23   -248.9013364 -0.272498E-02  0.277E-01    0.03       1.0  T
  24   -248.8993596  0.197681E-02  0.279E-01    0.02       1.0  T
  25   -248.8975056  0.185404E-02  0.268E-01    0.01       1.0  T
  26   -248.9087930 -0.112874E-01  0.145E-01    0.03       1.0  T
  27   -248.9041949  0.459814E-02  0.194E-01    0.02       1.0  T
  28   -248.9107429 -0.654807E-02  0.794E-02    0.03       1.0  T
  29   -248.9102613  0.481685E-03  0.902E-02    0.04       1.0  T
  30   -248.9081026  0.215865E-02  0.126E-01    0.02       1.0  T
  31   -248.9053237  0.277891E-02  0.164E-01    0.03       1.0  T
  32   -248.9035720  0.175171E-02  0.185E-01    0.03       1.0  T
  33   -248.9061773 -0.260531E-02  0.153E-01    0.03       1.0  T
  34   -248.9097743 -0.359701E-02  0.944E-02    0.03       1.0  T
  35   -248.9098857 -0.111384E-03  0.923E-02    0.04       1.0  T
  36   -248.9094052  0.480457E-03  0.101E-01    0.03       1.0  T
  37   -248.9106415 -0.123624E-02  0.708E-02    0.03       1.0  T
  38   -248.9117224 -0.108089E-02  0.224E-02    0.03       1.0  T
  39   -248.9117586 -0.362344E-04  0.197E-02    0.03       1.0  T
  40   -248.9118391 -0.805078E-04  0.914E-03    0.04       1.0  T
  41   -248.9118520 -0.129142E-04  0.500E-03    0.04       1.6  T
  42   -248.9118571 -0.513235E-05  0.195E-03    0.04       4.1  T
  43   -248.9118570  0.149775E-06  0.172E-03    0.04       4.7  T
  44   -248.9118574 -0.389340E-06  0.127E-03    0.04       6.3  T
  45   -248.9118575 -0.130361E-06  0.105E-03    0.04       7.6  T
  46   -248.9118577 -0.203231E-06  0.551E-04    0.04      14.5  T
  47   -248.9118578 -0.685390E-07  0.141E-04    0.04      56.7  T

   *** convergence criteria satisfied after 47 iterations ***

         #    Occupation            Energy/Eh            Energy/eV
      -------------------------------------------------------------
         1        2.0000           -0.7792303             -21.2039
       ...           ...                  ...                  ...
       211        1.9982           -0.3956067             -10.7650
       212        1.9971           -0.3951541             -10.7527
       213        1.9657           -0.3927946             -10.6885
       214        1.9312           -0.3921174             -10.6701
       215        1.9203           -0.3919721             -10.6661
       216        1.8003           -0.3910381             -10.6407
       217        1.4140           -0.3897859             -10.6066 (HOMO)
       218        0.7508           -0.3884654             -10.5707 (LUMO)
       219        0.2224           -0.3869742             -10.5301
       220                         -0.3308660              -9.0033
       221                         -0.2975873              -8.0978
       222                         -0.2959597              -8.0535
       ...                                ...                  ...
       391                          0.6398123              17.4102
      -------------------------------------------------------------
                  HL-Gap            0.0013205 Eh            0.0359 eV
             Fermi-level           -0.3889490 Eh          -10.5838 eV

 SCC (total)                   0 d,  0 h,  0 min,  1.086 sec
 SCC setup                      ...        0 min,  0.002 sec (  0.181%)
 Dispersion                     ...        0 min,  0.005 sec (  0.426%)
 classical contributions        ...        0 min,  0.000 sec (  0.027%)
 integral evaluation            ...        0 min,  0.009 sec (  0.811%)
 iterations                     ...        0 min,  1.046 sec ( 96.341%)
 molecular gradient             ...        0 min,  0.023 sec (  2.079%)
 printout                       ...        0 min,  0.001 sec (  0.133%)

         :::::::::::::::::::::::::::::::::::::::::::::::::::::
         ::                     SUMMARY                     ::
         :::::::::::::::::::::::::::::::::::::::::::::::::::::
         :: total energy            -245.795011574687 Eh    ::
         :: total w/o Gsasa/hb      -245.717722396961 Eh    ::
         :: gradient norm              0.350337052866 Eh/a0 ::
         :: HOMO-LUMO gap              0.035932525620 eV    ::
         ::.................................................::
         :: SCC energy              -248.900244154629 Eh    ::
         :: -> isotropic ES            0.744678379198 Eh    ::
         :: -> anisotropic ES         -0.012046695239 Eh    ::
         :: -> anisotropic XC          0.099132149390 Eh    ::
         :: -> dispersion             -0.176388815250 Eh    ::
         :: -> Gsolv                  -0.247909938606 Eh    ::
         ::    -> Gelec               -0.170620760880 Eh    ::
         ::    -> Gsasa               -0.062835925121 Eh    ::
         ::    -> Ghb                 -0.019406690182 Eh    ::
         ::    -> Gshift               0.004953437577 Eh    ::
         :: repulsion energy           3.105232579942 Eh    ::
         :: add. restraining           0.000000000000 Eh    ::
         :: total charge               1.000000000000 e     ::
         :::::::::::::::::::::::::::::::::::::::::::::::::::::

           -------------------------------------------------
          |                Property Printout                |
           -------------------------------------------------

    * Orbital Energies and Occupations

         #    Occupation            Energy/Eh            Energy/eV
      -------------------------------------------------------------
         1        2.0000           -0.7792303             -21.2039
       ...           ...                  ...                  ...
       205        2.0000           -0.4093603             -11.1393
       206        2.0000           -0.4071349             -11.0787
       207        2.0000           -0.4040501             -10.9948
       208        2.0000           -0.4035931             -10.9823
       209        2.0000           -0.4010984             -10.9144
       210        2.0000           -0.4006580             -10.9025
       211        1.9982           -0.3956067             -10.7650
       212        1.9971           -0.3951541             -10.7527
       213        1.9657           -0.3927946             -10.6885
       214        1.9312           -0.3921174             -10.6701
       215        1.9203           -0.3919721             -10.6661
       216        1.8003           -0.3910381             -10.6407
       217        1.4140           -0.3897859             -10.6066 (HOMO)
       218        0.7508           -0.3884654             -10.5707 (LUMO)
       219        0.2224           -0.3869742             -10.5301
       220                         -0.3308660              -9.0033
       221                         -0.2975873              -8.0978
       222                         -0.2959597              -8.0535
       223                         -0.2890831              -7.8664
       224                         -0.2807033              -7.6383
       225                         -0.2704523              -7.3594
       226                         -0.2469705              -6.7204
       227                         -0.2353162              -6.4033
       228                         -0.2344073              -6.3785
       ...                                ...                  ...
       391                          0.6398123              17.4102
      -------------------------------------------------------------
                  HL-Gap            0.0013205 Eh            0.0359 eV
             Fermi-level           -0.3889490 Eh          -10.5838 eV

     #   Z          covCN         q      C6AA      α(0)
     1   7 N        2.635    -0.379    29.781     8.105
     2   6 C        3.790     0.026    20.143     6.392
     3   6 C        2.754     0.269    22.464     7.761
     4   8 O        0.861    -0.484    23.440     6.491
     5   6 C        3.821    -0.071    21.839     6.650
     6   6 C        3.851    -0.014    20.788     6.485
     7   6 C        3.762    -0.119    22.817     6.809
     8   6 C        3.756    -0.117    22.801     6.808
     9   7 N        2.690    -0.182    24.944     7.418
    10   6 C        3.801     0.024    20.163     6.393
    11   6 C        2.755     0.265    22.523     7.771
    12   8 O        0.858    -0.479    23.333     6.476
    13   6 C        3.809    -0.112    22.638     6.773
    14   6 C        2.739     0.279    22.286     7.729
    15   8 O        0.858    -0.494    23.661     6.522
    16   7 N        2.638    -0.282    27.294     7.759
    17   7 N        2.688    -0.165    24.570     7.362
    18   6 C        3.788     0.017    20.300     6.417
    19   6 C        2.759     0.197    23.805     7.990
    20   8 O        0.856    -0.343    20.581     6.082
    21   6 C        3.812    -0.085    22.113     6.693
    22   6 C        3.812    -0.096    22.322     6.725
    23   6 C        3.745    -0.034    21.250     6.576
    24   7 N        2.696    -0.139    24.006     7.277
    25   6 C        2.736     0.232    23.130     7.874
    26   7 N        2.649    -0.255    26.626     7.664
    27   7 N        2.650    -0.269    26.974     7.714
    28   7 N        2.625    -0.352    29.074     8.008
    29   6 C        3.776     0.033    20.047     6.379
    30   6 C        2.759     0.198    23.782     7.986
    31   8 O        0.856    -0.353    20.757     6.108
    32   6 C        3.798    -0.070    21.838     6.654
    33   6 C        3.800    -0.106    22.515     6.756
    34   6 C        2.740     0.281    22.238     7.721
    35   8 O        0.858    -0.488    23.513     6.501
    36   7 N        2.638    -0.280    27.236     7.751
    37   7 N        2.628    -0.360    29.278     8.036
    38   6 C        3.782     0.026    20.161     6.396
    39   6 C        2.751     0.266    22.508     7.769
    40   8 O        0.860    -0.493    23.630     6.518
    41   6 C        3.761    -0.116    22.764     6.801
    42   7 N        2.687    -0.154    24.336     7.327
    43   6 C        3.796     0.026    20.141     6.390
    44   6 C        2.764     0.206    23.630     7.961
    45   8 O        0.856    -0.348    20.670     6.095
    46   6 C        3.812    -0.068    21.795     6.645
    47   6 C        3.803    -0.070    21.832     6.652
    48   6 C        2.684     0.382    20.526     7.414
    49   8 O        0.856    -0.490    23.565     6.508
    50   8 O        0.856    -0.462    22.967     6.425
    51   7 N        2.628    -0.347    28.950     7.991
    52   6 C        3.793     0.030    20.073     6.380
    53   6 C        2.766     0.274    22.372     7.746
    54   8 O        0.861    -0.495    23.666     6.522
    55   6 C        3.818    -0.073    21.880     6.657
    56   6 C        3.092     0.062    26.506     8.439
    57   7 N        1.989    -0.251    27.348     7.756
    58   6 C        3.062     0.002    27.910     8.663
    59   6 C        2.114     0.164    26.917     8.384
    60   7 N        1.979    -0.241    27.111     7.722
    61   7 N        2.690    -0.171    24.708     7.382
    62   6 C        3.797     0.013    20.360     6.425
    63   6 C        2.750     0.269    22.449     7.758
    64   8 O        0.859    -0.475    23.230     6.462
    65   6 C        3.809    -0.074    21.912     6.663
    66   6 C        3.851    -0.013    20.775     6.483
    67   6 C        3.759    -0.114    22.730     6.797
    68   6 C        3.758    -0.123    22.901     6.823
    69   7 N        2.688    -0.179    24.873     7.407
    70   6 C        3.795     0.030    20.067     6.379
    71   6 C        2.770     0.204    23.663     7.967
    72   8 O        0.857    -0.339    20.492     6.069
    73   6 C        3.813    -0.081    22.035     6.681
    74   6 C        3.085     0.069    26.358     8.416
    75   7 N        1.982    -0.235    26.970     7.702
    76   6 C        3.047    -0.025    28.571     8.767
    77   6 C        2.101     0.075    28.992     8.700
    78   7 N        2.834    -0.052    22.246     7.005
    79   1 H        0.860     0.168     1.285     1.776
    80   1 H        0.860     0.149     1.411     1.861
    81   1 H        0.927     0.058     2.219     2.330
    82   1 H        0.926     0.043     2.407     2.426
    83   1 H        0.927     0.038     2.475     2.460
    84   1 H        0.927     0.032     2.560     2.502
    85   1 H        0.927     0.044     2.400     2.423
    86   1 H        0.927     0.039     2.464     2.455
    87   1 H        0.927     0.043     2.409     2.427
    88   1 H        0.927     0.041     2.439     2.442
    89   1 H        0.927     0.042     2.429     2.437
    90   1 H        0.927     0.038     2.482     2.463
    91   1 H        0.861     0.206     1.075     1.624
    92   1 H        0.927     0.101     1.774     2.083
    93   1 H        0.927     0.096     1.819     2.109
    94   1 H        0.927     0.081     1.966     2.193
    95   1 H        0.861     0.234     0.949     1.526
    96   1 H        0.861     0.243     0.911     1.495
    97   1 H        0.861     0.220     1.008     1.573
    98   1 H        0.927     0.113     1.675     2.024
    99   1 H        0.929     0.077     2.010     2.217
   100   1 H        0.927     0.083     1.946     2.181
   101   1 H        0.927     0.074     2.038     2.232
   102   1 H        0.927     0.077     2.014     2.219
   103   1 H        0.927     0.074     2.041     2.234
   104   1 H        0.927     0.097     1.815     2.107
   105   1 H        0.927     0.092     1.861     2.133
   106   1 H        0.861     0.249     0.885     1.474
   107   1 H        0.861     0.253     0.872     1.463
   108   1 H        0.861     0.250     0.882     1.471
   109   1 H        0.861     0.256     0.859     1.452
   110   1 H        0.860     0.166     1.296     1.783
   111   1 H        0.860     0.181     1.209     1.722
   112   1 H        0.927     0.056     2.248     2.345
   113   1 H        0.929     0.079     1.985     2.203
   114   1 H        0.927     0.059     2.209     2.324
   115   1 H        0.926     0.088     1.899     2.155
   116   1 H        0.927     0.084     1.943     2.180
   117   1 H        0.927     0.064     2.151     2.294
   118   1 H        0.861     0.209     1.062     1.614
   119   1 H        0.861     0.226     0.985     1.554
   120   1 H        0.860     0.158     1.348     1.819
   121   1 H        0.860     0.166     1.296     1.783
   122   1 H        0.927     0.050     2.320     2.382
   123   1 H        0.927     0.061     2.183     2.311
   124   1 H        0.927     0.048     2.349     2.397
   125   1 H        0.927     0.057     2.240     2.340
   126   1 H        0.861     0.242     0.915     1.498
   127   1 H        0.927     0.105     1.740     2.063
   128   1 H        0.929     0.081     1.963     2.191
   129   1 H        0.926     0.073     2.047     2.238
   130   1 H        0.927     0.087     1.905     2.158
   131   1 H        0.927     0.102     1.763     2.076
   132   1 H        0.927     0.093     1.849     2.127
   133   1 H        0.860     0.168     1.284     1.775
   134   1 H        0.860     0.173     1.252     1.753
   135   1 H        0.927     0.063     2.159     2.298
   136   1 H        0.927     0.095     1.829     2.115
   137   1 H        0.927     0.087     1.904     2.158
   138   1 H        0.929     0.068     2.106     2.269
   139   1 H        0.861     0.231     0.960     1.535
   140   1 H        0.926     0.099     1.795     2.095
   141   1 H        0.927     0.063     2.168     2.303
   142   1 H        0.927     0.061     2.190     2.314
   143   1 H        0.927     0.029     2.594     2.519
   144   1 H        0.927     0.039     2.455     2.450
   145   1 H        0.926     0.039     2.459     2.452
   146   1 H        0.926     0.046     2.368     2.406
   147   1 H        0.927     0.043     2.405     2.425
   148   1 H        0.927     0.041     2.435     2.440
   149   1 H        0.927     0.045     2.385     2.415
   150   1 H        0.861     0.245     0.904     1.489
   151   1 H        0.926     0.104     1.752     2.070
   152   1 H        0.929     0.086     1.913     2.163
   153   1 H        0.927     0.097     1.816     2.107
   154   1 H        0.927     0.098     1.806     2.102
   155   1 H        0.929     0.073     2.048     2.238
   156   1 H        0.860     0.232     0.957     1.532
   157   1 H        0.858     0.223     0.998     1.565

 Mol. C6AA /au·bohr⁶  :     231699.464311
 Mol. C8AA /au·bohr⁸  :    5163425.955871
 Mol. α(0) /au        :        722.021435


Wiberg/Mayer (AO) data.
largest (>0.10) Wiberg bond orders for each atom

 ---------------------------------------------------------------------------
     #   Z sym  total        # sym  WBO       # sym  WBO       # sym  WBO
 ---------------------------------------------------------------------------
     1   7 N    2.991 --     2 C    1.020    80 H    0.953    79 H    0.941
     2   6 C    3.984 --     1 N    1.020     5 C    0.972    81 H    0.948
                             3 C    0.939
     3   6 C    3.944 --     4 O    1.658     9 N    1.276     2 C    0.939
     4   8 O    1.962 --     3 C    1.658     9 N    0.189
     5   6 C    3.995 --     6 C    0.994    82 H    0.975    83 H    0.973
                             2 C    0.972
     6   6 C    3.996 --     7 C    1.009     8 C    1.005     5 C    0.994
                            84 H    0.959
     7   6 C    3.994 --     6 C    1.009    85 H    0.987    87 H    0.986
                            86 H    0.986
     8   6 C    3.995 --     6 C    1.005    88 H    0.988    89 H    0.987
                            90 H    0.982
     9   7 N    3.444 --     3 C    1.276    10 C    0.974    91 H    0.918
                             4 O    0.189
    10   6 C    3.963 --    13 C    0.982     9 N    0.974    11 C    0.943
                            92 H    0.941
    11   6 C    3.952 --    12 O    1.624    17 N    1.308    10 C    0.943
    12   8 O    1.974 --    11 C    1.624    17 N    0.195
    13   6 C    3.991 --    10 C    0.982    94 H    0.963    93 H    0.955
                            14 C    0.949
    14   6 C    3.947 --    15 O    1.650    16 N    1.324    13 C    0.949
    15   8 O    1.955 --    14 C    1.650    16 N    0.203
    16   7 N    3.405 --    14 C    1.324    95 H    0.928    96 H    0.920
                            15 O    0.203
    17   7 N    3.474 --    11 C    1.308    18 C    0.978    97 H    0.919
                            12 O    0.195
    18   6 C    3.961 --    17 N    0.978    21 C    0.971    19 C    0.962
                            98 H    0.932
    19   6 C    3.895 --    20 O    1.920    18 C    0.962    99 H    0.949
    20   8 O    2.063 --    19 C    1.920
    21   6 C    3.984 --    22 C    1.004   101 H    0.972    18 C    0.971
                           100 H    0.968
    22   6 C    3.991 --    21 C    1.004    23 C    1.001   102 H    0.968
                           103 H    0.964
    23   6 C    3.951 --    22 C    1.001    24 N    0.980   104 H    0.969
                           105 H    0.959
    24   7 N    3.471 --    25 C    1.317    23 C    0.980   156 H    0.919
                            27 N    0.102    26 N    0.101
    25   6 C    3.976 --    26 N    1.318    24 N    1.317    27 N    1.311
    26   7 N    3.396 --    25 C    1.318   107 H    0.918   106 H    0.909
                            24 N    0.101    27 N    0.101
    27   7 N    3.385 --    25 C    1.311   108 H    0.919   109 H    0.916
                            24 N    0.102    26 N    0.101
    28   7 N    2.962 --    29 C    1.005   110 H    0.959   111 H    0.952
    29   6 C    3.976 --    28 N    1.005    30 C    0.971    32 C    0.964
                           112 H    0.955
    30   6 C    3.886 --    31 O    1.902    29 C    0.971   113 H    0.949
    31   8 O    2.064 --    30 C    1.902
    32   6 C    3.986 --    33 C    0.987   114 H    0.976   115 H    0.967
                            29 C    0.964
    33   6 C    3.993 --    32 C    0.987   117 H    0.978    34 C    0.966
                           116 H    0.961
    34   6 C    3.942 --    35 O    1.671    36 N    1.281    33 C    0.966
    35   8 O    1.967 --    34 C    1.671    36 N    0.198
    36   7 N    3.381 --    34 C    1.281   118 H    0.934   119 H    0.924
                            35 O    0.198
    37   7 N    2.975 --    38 C    1.000   120 H    0.963   121 H    0.957
    38   6 C    3.977 --    41 C    1.004    37 N    1.000   122 H    0.947
                            39 C    0.927
    39   6 C    3.939 --    40 O    1.583    42 N    1.349    38 C    0.927
    40   8 O    1.975 --    39 C    1.583    42 N    0.192
    41   6 C    3.991 --    38 C    1.004   123 H    0.983   124 H    0.980
                           125 H    0.978
    42   7 N    3.499 --    39 C    1.349    43 C    0.968   126 H    0.894
                            40 O    0.192
    43   6 C    3.950 --    44 C    0.970    42 N    0.968    46 C    0.963
                           127 H    0.944
    44   6 C    3.892 --    45 O    1.904    43 C    0.970   128 H    0.946
    45   8 O    2.045 --    44 C    1.904
    46   6 C    3.978 --    47 C    1.009   129 H    0.970   130 H    0.965
                            43 C    0.963
    47   6 C    3.789 --    46 C    1.009   131 H    0.956   132 H    0.952
                            48 C    0.824
    48   6 C    3.888 --    50 O    1.523    49 O    1.517    47 C    0.824
    49   8 O    1.789 --    48 C    1.517    50 O    0.237
    50   8 O    1.795 --    48 C    1.523    49 O    0.237
    51   7 N    2.980 --    52 C    1.006   133 H    0.956   134 H    0.950
    52   6 C    3.966 --    51 N    1.006    55 C    0.960    53 C    0.950
                           135 H    0.940
    53   6 C    3.950 --    54 O    1.620    61 N    1.310    52 C    0.950
    54   8 O    1.933 --    53 C    1.620    61 N    0.195
    55   6 C    3.987 --    56 C    1.023    52 C    0.960   136 H    0.953
                           137 H    0.947
    56   6 C    3.904 --    58 C    1.498    57 N    1.179    55 C    1.023
                            59 C    0.126
    57   7 N    3.031 --    59 C    1.637    56 C    1.179    60 N    0.120
    58   6 C    3.900 --    56 C    1.498    60 N    1.212   138 H    0.969
                            59 C    0.130
    59   6 C    3.588 --    57 N    1.637    60 N    1.624    58 C    0.130
                            56 C    0.126
    60   7 N    3.030 --    59 C    1.624    58 C    1.212    57 N    0.120
    61   7 N    3.465 --    53 C    1.310    62 C    0.979   139 H    0.890
                            54 O    0.195
    62   6 C    3.942 --    61 N    0.979    65 C    0.971   140 H    0.946
                            63 C    0.920
    63   6 C    3.938 --    64 O    1.643    69 N    1.305    62 C    0.920
    64   8 O    1.940 --    63 C    1.643    69 N    0.193
    65   6 C    3.984 --    66 C    0.991   141 H    0.973    62 C    0.971
                           142 H    0.966
    66   6 C    3.992 --    67 C    1.008    68 C    1.007    65 C    0.991
                           143 H    0.969
    67   6 C    3.995 --    66 C    1.008   146 H    0.985   144 H    0.984
                           145 H    0.982
    68   6 C    3.994 --    66 C    1.007   148 H    0.987   147 H    0.987
                           149 H    0.981
    69   7 N    3.463 --    63 C    1.305    70 C    0.973   150 H    0.877
                            64 O    0.193
    70   6 C    3.956 --    69 N    0.973    71 C    0.971    73 C    0.956
                           151 H    0.950
    71   6 C    3.893 --    72 O    1.913    70 C    0.971   152 H    0.945
    72   8 O    2.045 --    71 C    1.913
    73   6 C    3.980 --    74 C    1.013   154 H    0.958    70 C    0.956
                           153 H    0.951
    74   6 C    3.898 --    76 C    1.561    75 N    1.181    73 C    1.013
    75   7 N    3.052 --    77 C    1.689    74 C    1.181
    76   6 C    3.901 --    74 C    1.561    78 N    1.177   155 H    0.968
                            77 C    0.120
    77   6 C    3.250 --    75 N    1.689    78 N    1.335    76 C    0.120
    78   7 N    3.568 --    77 C    1.335    76 C    1.177   157 H    0.883
    79   1 H    0.972 --     1 N    0.941
    80   1 H    0.978 --     1 N    0.953
    81   1 H    0.996 --     2 C    0.948
    82   1 H    0.998 --     5 C    0.975
    83   1 H    0.998 --     5 C    0.973
    84   1 H    0.999 --     6 C    0.959
    85   1 H    0.998 --     7 C    0.987
    86   1 H    0.998 --     7 C    0.986
    87   1 H    0.997 --     7 C    0.986
    88   1 H    0.998 --     8 C    0.988
    89   1 H    0.998 --     8 C    0.987
    90   1 H    0.999 --     8 C    0.982
    91   1 H    0.957 --     9 N    0.918
    92   1 H    0.989 --    10 C    0.941
    93   1 H    0.990 --    13 C    0.955
    94   1 H    0.993 --    13 C    0.963
    95   1 H    0.945 --    16 N    0.928
    96   1 H    0.940 --    16 N    0.920
    97   1 H    0.951 --    17 N    0.919
    98   1 H    0.987 --    18 C    0.932
    99   1 H    0.994 --    19 C    0.949
   100   1 H    0.992 --    21 C    0.968
   101   1 H    0.994 --    21 C    0.972
   102   1 H    0.994 --    22 C    0.968
   103   1 H    0.995 --    22 C    0.964
   104   1 H    0.991 --    23 C    0.969
   105   1 H    0.991 --    23 C    0.959
   106   1 H    0.938 --    26 N    0.909
   107   1 H    0.936 --    26 N    0.918
   108   1 H    0.937 --    27 N    0.919
   109   1 H    0.934 --    27 N    0.916
   110   1 H    0.971 --    28 N    0.959
   111   1 H    0.966 --    28 N    0.952
   112   1 H    0.986 --    29 C    0.955
   113   1 H    0.993 --    30 C    0.949
   114   1 H    0.996 --    32 C    0.976
   115   1 H    0.992 --    32 C    0.967
   116   1 H    0.993 --    33 C    0.961
   117   1 H    0.996 --    33 C    0.978
   118   1 H    0.956 --    36 N    0.934
   119   1 H    0.949 --    36 N    0.924
   120   1 H    0.974 --    37 N    0.963
   121   1 H    0.971 --    37 N    0.957
   122   1 H    0.990 --    38 C    0.947
   123   1 H    0.995 --    41 C    0.983
   124   1 H    0.997 --    41 C    0.980
   125   1 H    0.997 --    41 C    0.978
   126   1 H    0.941 --    42 N    0.894
   127   1 H    0.988 --    43 C    0.944
   128   1 H    0.990 --    44 C    0.946
   129   1 H    0.994 --    46 C    0.970
   130   1 H    0.990 --    46 C    0.965
   131   1 H    0.986 --    47 C    0.956
   132   1 H    0.986 --    47 C    0.952
   133   1 H    0.970 --    51 N    0.956
   134   1 H    0.967 --    51 N    0.950
   135   1 H    0.978 --    52 C    0.940
   136   1 H    0.989 --    55 C    0.953
   137   1 H    0.988 --    55 C    0.947
   138   1 H    0.995 --    58 C    0.969
   139   1 H    0.947 --    61 N    0.890
   140   1 H    0.989 --    62 C    0.946
   141   1 H    0.995 --    65 C    0.973
   142   1 H    0.996 --    65 C    0.966
   143   1 H    0.999 --    66 C    0.969
   144   1 H    0.998 --    67 C    0.984
   145   1 H    0.998 --    67 C    0.982
   146   1 H    0.997 --    67 C    0.985
   147   1 H    0.998 --    68 C    0.987
   148   1 H    0.998 --    68 C    0.987
   149   1 H    0.998 --    68 C    0.981
   150   1 H    0.940 --    69 N    0.877
   151   1 H    0.989 --    70 C    0.950
   152   1 H    0.989 --    71 C    0.945
   153   1 H    0.990 --    73 C    0.951
   154   1 H    0.989 --    73 C    0.958
   155   1 H    0.994 --    76 C    0.968
   156   1 H    0.946 --    24 N    0.919
   157   1 H    0.950 --    78 N    0.883
 ---------------------------------------------------------------------------

Topologies differ in total number of bonds
Writing topology from bond orders to xtbtopo.mol

molecular dipole:
                 x           y           z       tot (Debye)
 q only:       34.759      78.753      23.094
   full:       35.397      79.572      22.763     228.798
molecular quadrupole (traceless):
                xx          xy          yy          xz          yz          zz
 q only:    -2161.902    3957.857    5590.479     832.727    2630.473   -3428.578
  q+dip:    -2182.172    4045.146    5690.949     846.112    2578.142   -3508.777
   full:    -2184.923    4045.660    5694.550     847.232    2577.051   -3509.627


           -------------------------------------------------
          | TOTAL ENERGY             -245.795011574687 Eh   |
          | GRADIENT NORM               0.350337052866 Eh/α |
          | HOMO-LUMO GAP               0.035932525620 eV   |
           -------------------------------------------------
########################################################################
[WARNING] Runtime exception occurred
-2- restart_readRestart: Dimension missmatch in restart file.
-1- restart_readRestart: Number of electron missmatch in restart file.
########################################################################

------------------------------------------------------------------------
 * finished run on 2025/05/05 at 16:41:06.441     
------------------------------------------------------------------------
 total:
 * wall-time:     0 d,  0 h,  0 min,  1.100 sec
 *  cpu-time:     0 d,  0 h,  0 min, 32.881 sec
 * ratio c/w:    29.879 speedup
 SCF:
 * wall-time:     0 d,  0 h,  0 min,  1.087 sec
 *  cpu-time:     0 d,  0 h,  0 min, 32.557 sec
 * ratio c/w:    29.950 speedup

