      -----------------------------------------------------------      
     |                   =====================                   |     
     |                           x T B                           |     
     |                   =====================                   |     
     |                         S. Grimme                         |     
     |          Mulliken Center for Theoretical Chemistry        |     
     |                    University of Bonn                     |     
      -----------------------------------------------------------      

   * xtb version 6.7.1 (edcfbbe) compiled by 'conda@afd1a870197c' on 2025-04-11

   xtb is free software: you can redistribute it and/or modify it under
   the terms of the GNU Lesser General Public License as published by
   the Free Software Foundation, either version 3 of the License, or
   (at your option) any later version.
   
   xtb is distributed in the hope that it will be useful,
   but WITHOUT ANY WARRANTY; without even the implied warranty of
   MERCHANTABILITY or FITNESS FOR A PARTICULAR PURPOSE.  See the
   GNU Lesser General Public License for more details.
   
   Cite this work as:
   * C. Bannwarth, E. Caldeweyher, S. Ehlert, A. Hansen, P. Pracht,
     J. Seibert, S. Spicher, S. Grimme, WIREs Comput. Mol. Sci., 2020, 11,
     e01493. DOI: 10.1002/wcms.1493
   
   for GFN2-xTB:
   * C. Bannwarth, S. Ehlert and S. Grimme., J. Chem. Theory Comput., 2019,
     15, 1652-1671. DOI: 10.1021/acs.jctc.8b01176
   for GFN1-xTB:
   * S. Grimme, C. Bannwarth, P. Shushkov, J. Chem. Theory Comput., 2017,
     13, 1989-2009. DOI: 10.1021/acs.jctc.7b00118
   for GFN0-xTB:
   * P. Pracht, E. Caldeweyher, S. Ehlert, S. Grimme, ChemRxiv, 2019, preprint.
     DOI: 10.26434/chemrxiv.8326202.v1
   for GFN-FF:
   * S. Spicher and S. Grimme, Angew. Chem. Int. Ed., 2020, 59, 15665-15673.
     DOI: 10.1002/anie.202004239
   
   for ALPB and GBSA implicit solvation:
   * S. Ehlert, M. Stahn, S. Spicher, S. Grimme, J. Chem. Theory Comput.,
     2021, 17, 4250-4261. DOI: 10.1021/acs.jctc.1c00471
   
   for ddCOSMO and CPCM-X implicit solvation:
   * M. Stahn, S. Ehlert, S. Grimme, J. Phys. Chem. A,
     2023, XX, XXXX-XXXX. DOI: 10.1021/acs.jpca.3c04382
   
   for DFT-D4:
   * E. Caldeweyher, C. Bannwarth and S. Grimme, J. Chem. Phys., 2017,
     147, 034112. DOI: 10.1063/1.4993215
   * E. Caldeweyher, S. Ehlert, A. Hansen, H. Neugebauer, S. Spicher,
     C. Bannwarth and S. Grimme, J. Chem. Phys., 2019, 150, 154122.
     DOI: 10.1063/1.5090222
   * E. Caldeweyher, J.-M. Mewes, S. Ehlert and S. Grimme, Phys. Chem. Chem. Phys.
     2020, 22, 8499-8512. DOI: 10.1039/D0CP00502A
   
   for sTDA-xTB:
   * S. Grimme and C. Bannwarth, J. Chem. Phys., 2016, 145, 054103.
     DOI: 10.1063/1.4959605
   
   in the mass-spec context:
   * V. Asgeirsson, C. Bauer and S. Grimme, Chem. Sci., 2017, 8, 4879.
     DOI: 10.1039/c7sc00601b
   * J. Koopman and S. Grimme, ACS Omega 2019, 4, 12, 15120-15133.
     DOI: 10.1021/acsomega.9b02011
   
   for metadynamics refer to:
   * S. Grimme, J. Chem. Theory Comput., 2019, 155, 2847-2862
     DOI: 10.1021/acs.jctc.9b00143
   
   for SPH calculations refer to:
   * S. Spicher and S. Grimme, J. Chem. Theory Comput., 2021, 17, 1701-1714
     DOI: 10.1021/acs.jctc.0c01306
   
   for ONIOM refer to:
   * C. Plett, A. Katbashev, S. Ehlert, S. Grimme, M. Bursch,
     Phys. Chem. Chem. Phys., 2023, 25, 17860-17868. DOI: 10.1039/D3CP02178E
   
   for DIPRO refer to:
   * J. Kohn, N. Gildemeister, S. Grimme, D. Fazzi, A. Hansen,
     J. Chem. Phys., 2023, just accepted.
   
   for PTB refer to:
   * S. Grimme, M. Mueller, A. Hansen, J. Chem. Phys., 2023, 158, 124111.
     DOI: 10.1063/5.0137838
   
   with help from (in alphabetical order)
   P. Atkinson, C. Bannwarth, F. Bohle, G. Brandenburg, E. Caldeweyher
   M. Checinski, S. Dohm, S. Ehlert, S. Ehrlich, I. Gerasimov, C. Hölzer
   A. Katbashev, J. Kohn, J. Koopman, C. Lavigne, S. Lehtola, F. März, M. Müller,
   F. Musil, H. Neugebauer, J. Pisarek, C. Plett, P. Pracht, F. Pultar,
   J. Seibert, P. Shushkov, S. Spicher, M. Stahn, M. Steiner, T. Strunk,
   J. Stückrath, T. Rose, and J. Unsleber
   
 * started run on 2025/05/05 at 16:41:03.945     
   ID    Z sym.   atoms
    1    7 N      1, 9, 16, 17, 24, 26-28, 36, 37, 42, 51, 57, 60, 61, 69,
                  75, 78
    2    6 C      2, 3, 5-8, 10, 11, 13, 14, 18, 19, 21-23, 25, 29, 30,
                  32-34, 38, 39, 41, 43, 44, 46-48, 52, 53, 55, 56, 58, 59,
                  62, 63, 65-68, 70, 71, 73, 74, 76, 77
    3    8 O      4, 12, 15, 20, 31, 35, 40, 45, 49, 50, 54, 64, 72
    4    1 H      79-157

           -------------------------------------------------
          |                Calculation Setup                |
           -------------------------------------------------

          program call               : xtb /tmp/tmp_df46w9f/HID/input.xyz --alpb ether --chrg 1 --input /tmp/tmp_df46w9f/HID/constraints.inp --gfn 2
          hostname                   : fedora
          coordinate file            : /tmp/tmp_df46w9f/HID/input.xyz
          omp threads                :                    32


molecular fragmentation (1/2 indicates fragments):
111111111111111111111111111222222222222222222222222222222222222222222222
222222111111111111111111111111111111122222222222222222222222222222222222
2222222222212
# atoms in fragment 1/2:    59    98
 fragment masses (1/2) :      386.47      717.77
CMA distance (Bohr)    :  14.363
constraining FC (au)   :  0.0500
########################################################################
[WARNING] Please study the warnings concerning your input carefully
-1- readin_getIntValue: could not parse 'S'
########################################################################

           -------------------------------------------------
          |                 G F N 2 - x T B                 |
           -------------------------------------------------

        Reference                      10.1021/acs.jctc.8b01176
      * Hamiltonian:
        H0-scaling (s, p, d)           1.850000    2.230000    2.230000
        zeta-weighting                 0.500000
      * Dispersion:
        s8                             2.700000
        a1                             0.520000
        a2                             5.000000
        s9                             5.000000
      * Repulsion:
        kExp                           1.500000    1.000000
        rExp                           1.000000
      * Coulomb:
        alpha                          2.000000
        third order                    shell-resolved
        anisotropic                    true
        a3                             3.000000
        a5                             4.000000
        cn-shift                       1.200000
        cn-exp                         4.000000
        max-rad                        5.000000

      * Solvation model:               ALPB
        Solvent                        ether
        Parameter file                 internal GFN2-xTB/ALPB
        Dielectric constant                4.3300E+00
        Reference state                gsolv [1 M gas/solution]
        Free energy shift                  4.9534E-03 Eh       3.1083E+00 kcal/mol
        Temperature                        2.9815E+02 K
        Density                            7.1300E-01 kg/L
        Solvent mass                       7.4120E+01 g/mol
        Interaction kernel             P16
        Born radius scaling (c1)           1.5847E+00
        Born radii integrator          GBOBC
        Born offset                        0.0000E+00 a0       0.0000E+00 AA
        H-bond correction              true
        Ion screening                  false
        Surface tension                    1.0000E-05 Eh       1.5569E+01 dyn/cm
        Grid points                               230 per atom

          ...................................................
          :                      SETUP                      :
          :.................................................:
          :  # basis functions                 391          :
          :  # atomic orbitals                 391          :
          :  # shells                          235          :
          :  # electrons                       434          :
          :  max. iterations                   250          :
          :  Hamiltonian                  GFN2-xTB          :
          :  restarted?                      false          :
          :  GBSA solvation                   true          :
          :  PC potential                    false          :
          :  electronic temp.          300.0000000     K    :
          :  accuracy                    1.0000000          :
          :  -> integral cutoff          0.2500000E+02      :
          :  -> integral neglect         0.1000000E-07      :
          :  -> SCF convergence          0.1000000E-05 Eh   :
          :  -> wf. convergence          0.1000000E-03 e    :
          :  Broyden damping             0.4000000          :
          :  net charge                          1          :
          :  unpaired electrons                  0          :
          ...................................................

 iter      E             dE          RMSdq      gap      omega  full diag
   1   -246.3934258 -0.246393E+03  0.472E+00    0.03       0.0  T
   2   -244.3442341  0.204919E+01  0.437E+00    0.51       1.0  T
   3   -247.3432764 -0.299904E+01  0.295E+00    0.39       1.0  T
   4   -248.3096421 -0.966366E+00  0.218E+00    0.08       1.0  T
   5   -247.9181612  0.391481E+00  0.211E+00    0.02       1.0  T
   6   -248.0352930 -0.117132E+00  0.189E+00    0.47       1.0  T
   7   -248.4273604 -0.392067E+00  0.157E+00    0.05       1.0  T
   8   -248.7611223 -0.333762E+00  0.966E-01    0.03       1.0  T
   9   -248.2945280  0.466594E+00  0.138E+00    0.12       1.0  T
  10   -248.1698866  0.124641E+00  0.159E+00    0.17       1.0  T
  11   -248.7483449 -0.578458E+00  0.969E-01    0.08       1.0  T
  12   -248.1858973  0.562448E+00  0.153E+00    0.23       1.0  T
  13   -248.1911206 -0.522321E-02  0.154E+00    0.17       1.0  T
  14   -248.4633197 -0.272199E+00  0.129E+00    0.06       1.0  T
  15   -248.6101483 -0.146829E+00  0.105E+00    0.03       1.0  T
  16   -248.6167006 -0.655233E-02  0.104E+00    0.03       1.0  T
  17   -248.6715971 -0.548965E-01  0.878E-01    0.01       1.0  T
  18   -248.8622116 -0.190615E+00  0.561E-01    0.02       1.0  T
  19   -248.8685887 -0.637704E-02  0.535E-01    0.06       1.0  T
  20   -248.8747367 -0.614802E-02  0.476E-01    0.05       1.0  T
  21   -248.8747972 -0.605597E-04  0.472E-01    0.03       1.0  T
  22   -248.2940274  0.580770E+00  0.160E+00    0.02       1.0  T
  23   -248.8893720 -0.595345E+00  0.349E-01    0.06       1.0  T
  24   -248.8601365  0.292354E-01  0.474E-01    0.02       1.0  T
  25   -248.6708655  0.189271E+00  0.103E+00    0.03       1.0  T
  26   -248.8742526 -0.203387E+00  0.386E-01    0.04       1.0  T
  27   -248.7064186  0.167834E+00  0.938E-01    0.02       1.0  T
  28   -248.8483803 -0.141962E+00  0.498E-01    0.02       1.0  T
  29   -248.8959498 -0.475695E-01  0.200E-01    0.02       1.0  T
  30   -248.9051657 -0.921589E-02  0.685E-02    0.04       1.0  T
  31   -248.9059145 -0.748766E-03  0.508E-02    0.04       1.0  T
  32   -248.9050149  0.899599E-03  0.749E-02    0.04       1.0  T
  33   -248.9057946 -0.779729E-03  0.541E-02    0.04       1.0  T
  34   -248.9060583 -0.263707E-03  0.425E-02    0.04       1.0  T
  35   -248.9061090 -0.507028E-04  0.389E-02    0.04       1.0  T
  36   -248.9062759 -0.166871E-03  0.278E-02    0.04       1.0  T
  37   -248.9063464 -0.704791E-04  0.204E-02    0.04       1.0  T
  38   -248.9063903 -0.439024E-04  0.152E-02    0.04       1.0  T
  39   -248.9064284 -0.381092E-04  0.777E-03    0.04       1.0  T
  40   -248.9064371 -0.870834E-05  0.433E-03    0.04       1.8  T
  41   -248.9064399 -0.284355E-05  0.272E-03    0.04       2.9  T
  42   -248.9064412 -0.125948E-05  0.105E-03    0.04       7.6  T
  43   -248.9064414 -0.218327E-06  0.297E-04    0.04      26.9  T
  44   -248.9064414 -0.157202E-07  0.189E-04    0.04      42.3  T

   *** convergence criteria satisfied after 44 iterations ***

         #    Occupation            Energy/Eh            Energy/eV
      -------------------------------------------------------------
         1        2.0000           -0.7763690             -21.1261
       ...           ...                  ...                  ...
       211        1.9966           -0.3964628             -10.7883
       212        1.9609           -0.3941132             -10.7244
       213        1.9570           -0.3940221             -10.7219
       214        1.9227           -0.3934466             -10.7062
       215        1.9076           -0.3932705             -10.7014
       216        1.7910           -0.3924346             -10.6787
       217        1.4813           -0.3913909             -10.6503 (HOMO)
       218        0.7649           -0.3899387             -10.6108 (LUMO)
       219        0.2180           -0.3883979             -10.5688
       220                         -0.3244943              -8.8299
       221                         -0.3035159              -8.2591
       222                         -0.2970924              -8.0843
       ...                                ...                  ...
       391                          0.6369904              17.3334
      -------------------------------------------------------------
                  HL-Gap            0.0014522 Eh            0.0395 eV
             Fermi-level           -0.3903939 Eh          -10.6232 eV

 SCC (total)                   0 d,  0 h,  0 min,  1.363 sec
 SCC setup                      ...        0 min,  0.002 sec (  0.139%)
 Dispersion                     ...        0 min,  0.005 sec (  0.347%)
 classical contributions        ...        0 min,  0.000 sec (  0.022%)
 integral evaluation            ...        0 min,  0.009 sec (  0.672%)
 iterations                     ...        0 min,  1.323 sec ( 97.054%)
 molecular gradient             ...        0 min,  0.023 sec (  1.665%)
 printout                       ...        0 min,  0.001 sec (  0.099%)

         :::::::::::::::::::::::::::::::::::::::::::::::::::::
         ::                     SUMMARY                     ::
         :::::::::::::::::::::::::::::::::::::::::::::::::::::
         :: total energy            -245.789647629535 Eh    ::
         :: total w/o Gsasa/hb      -245.712134309204 Eh    ::
         :: gradient norm              0.353042010720 Eh/a0 ::
         :: HOMO-LUMO gap              0.039515905955 eV    ::
         ::.................................................::
         :: SCC energy              -248.894895877149 Eh    ::
         :: -> isotropic ES            0.746918834120 Eh    ::
         :: -> anisotropic ES         -0.010379136559 Eh    ::
         :: -> anisotropic XC          0.098715498301 Eh    ::
         :: -> dispersion             -0.176208409243 Eh    ::
         :: -> Gsolv                  -0.248592734612 Eh    ::
         ::    -> Gelec               -0.171079414281 Eh    ::
         ::    -> Gsasa               -0.062701431355 Eh    ::
         ::    -> Ghb                 -0.019765326553 Eh    ::
         ::    -> Gshift               0.004953437577 Eh    ::
         :: repulsion energy           3.105248247615 Eh    ::
         :: add. restraining           0.000000000000 Eh    ::
         :: total charge               1.000000000007 e     ::
         :::::::::::::::::::::::::::::::::::::::::::::::::::::

           -------------------------------------------------
          |                Property Printout                |
           -------------------------------------------------

    * Orbital Energies and Occupations

         #    Occupation            Energy/Eh            Energy/eV
      -------------------------------------------------------------
         1        2.0000           -0.7763690             -21.1261
       ...           ...                  ...                  ...
       205        2.0000           -0.4107115             -11.1760
       206        2.0000           -0.4081401             -11.1061
       207        2.0000           -0.4052995             -11.0288
       208        2.0000           -0.4020163             -10.9394
       209        2.0000           -0.4019900             -10.9387
       210        1.9999           -0.4003465             -10.8940
       211        1.9966           -0.3964628             -10.7883
       212        1.9609           -0.3941132             -10.7244
       213        1.9570           -0.3940221             -10.7219
       214        1.9227           -0.3934466             -10.7062
       215        1.9076           -0.3932705             -10.7014
       216        1.7910           -0.3924346             -10.6787
       217        1.4813           -0.3913909             -10.6503 (HOMO)
       218        0.7649           -0.3899387             -10.6108 (LUMO)
       219        0.2180           -0.3883979             -10.5688
       220                         -0.3244943              -8.8299
       221                         -0.3035159              -8.2591
       222                         -0.2970924              -8.0843
       223                         -0.2918729              -7.9423
       224                         -0.2778720              -7.5613
       225                         -0.2501677              -6.8074
       226                         -0.2380643              -6.4781
       227                         -0.2377109              -6.4684
       228                         -0.2252109              -6.1283
       ...                                ...                  ...
       391                          0.6369904              17.3334
      -------------------------------------------------------------
                  HL-Gap            0.0014522 Eh            0.0395 eV
             Fermi-level           -0.3903939 Eh          -10.6232 eV

     #   Z          covCN         q      C6AA      α(0)
     1   7 N        2.635    -0.369    29.513     8.068
     2   6 C        3.790     0.026    20.155     6.394
     3   6 C        2.754     0.268    22.471     7.762
     4   8 O        0.861    -0.479    23.313     6.474
     5   6 C        3.821    -0.071    21.841     6.651
     6   6 C        3.851    -0.014    20.793     6.486
     7   6 C        3.762    -0.119    22.821     6.810
     8   6 C        3.756    -0.118    22.806     6.809
     9   7 N        2.690    -0.180    24.889     7.410
    10   6 C        3.801     0.021    20.225     6.403
    11   6 C        2.755     0.268    22.473     7.763
    12   8 O        0.858    -0.471    23.149     6.451
    13   6 C        3.809    -0.111    22.618     6.770
    14   6 C        2.739     0.279    22.275     7.727
    15   8 O        0.858    -0.494    23.660     6.522
    16   7 N        2.638    -0.284    27.330     7.764
    17   7 N        2.688    -0.172    24.727     7.385
    18   6 C        3.788     0.017    20.299     6.417
    19   6 C        2.759     0.198    23.788     7.987
    20   8 O        0.856    -0.348    20.662     6.094
    21   6 C        3.812    -0.084    22.099     6.691
    22   6 C        3.812    -0.096    22.317     6.724
    23   6 C        3.745    -0.034    21.246     6.575
    24   7 N        2.696    -0.138    24.000     7.276
    25   6 C        2.736     0.232    23.129     7.874
    26   7 N        2.649    -0.255    26.624     7.663
    27   7 N        2.650    -0.270    26.981     7.715
    28   7 N        2.625    -0.348    28.954     7.992
    29   6 C        3.776     0.032    20.058     6.381
    30   6 C        2.759     0.198    23.773     7.985
    31   8 O        0.856    -0.353    20.770     6.110
    32   6 C        3.798    -0.070    21.834     6.653
    33   6 C        3.800    -0.106    22.517     6.756
    34   6 C        2.740     0.281    22.239     7.721
    35   8 O        0.858    -0.491    23.587     6.511
    36   7 N        2.638    -0.278    27.186     7.744
    37   7 N        2.628    -0.356    29.181     8.023
    38   6 C        3.782     0.026    20.163     6.396
    39   6 C        2.751     0.267    22.490     7.766
    40   8 O        0.860    -0.493    23.624     6.517
    41   6 C        3.761    -0.116    22.770     6.802
    42   7 N        2.687    -0.158    24.419     7.339
    43   6 C        3.796     0.028    20.109     6.385
    44   6 C        2.764     0.205    23.647     7.964
    45   8 O        0.856    -0.351    20.730     6.104
    46   6 C        3.812    -0.069    21.819     6.649
    47   6 C        3.803    -0.072    21.868     6.658
    48   6 C        2.684     0.379    20.583     7.425
    49   8 O        0.856    -0.502    23.823     6.544
    50   8 O        0.856    -0.475    23.230     6.462
    51   7 N        2.628    -0.348    28.973     7.994
    52   6 C        3.793     0.030    20.072     6.380
    53   6 C        2.766     0.274    22.373     7.746
    54   8 O        0.861    -0.493    23.637     6.518
    55   6 C        3.818    -0.073    21.885     6.658
    56   6 C        3.092     0.062    26.499     8.437
    57   7 N        1.989    -0.250    27.321     7.752
    58   6 C        3.062     0.002    27.908     8.663
    59   6 C        2.114     0.165    26.897     8.381
    60   7 N        1.979    -0.240    27.086     7.718
    61   7 N        2.690    -0.170    24.684     7.379
    62   6 C        3.797     0.014    20.353     6.424
    63   6 C        2.750     0.270    22.432     7.755
    64   8 O        0.859    -0.471    23.157     6.452
    65   6 C        3.809    -0.074    21.915     6.664
    66   6 C        3.851    -0.013    20.771     6.482
    67   6 C        3.759    -0.114    22.737     6.798
    68   6 C        3.758    -0.123    22.905     6.823
    69   7 N        2.688    -0.180    24.890     7.410
    70   6 C        3.795     0.031    20.066     6.379
    71   6 C        2.770     0.202    23.695     7.972
    72   8 O        0.857    -0.340    20.523     6.074
    73   6 C        3.813    -0.084    22.097     6.691
    74   6 C        3.085     0.035    27.127     8.538
    75   7 N        2.840    -0.061    22.411     7.031
    76   6 C        3.047     0.012    27.692     8.631
    77   6 C        2.101     0.070    29.126     8.720
    78   7 N        1.976    -0.192    25.953     7.555
    79   1 H        0.860     0.172     1.262     1.760
    80   1 H        0.860     0.153     1.379     1.839
    81   1 H        0.927     0.059     2.208     2.324
    82   1 H        0.926     0.045     2.379     2.412
    83   1 H        0.927     0.039     2.458     2.452
    84   1 H        0.927     0.032     2.556     2.500
    85   1 H        0.927     0.044     2.397     2.421
    86   1 H        0.927     0.039     2.460     2.453
    87   1 H        0.927     0.043     2.407     2.426
    88   1 H        0.927     0.041     2.437     2.441
    89   1 H        0.927     0.042     2.428     2.436
    90   1 H        0.927     0.038     2.477     2.461
    91   1 H        0.861     0.203     1.090     1.636
    92   1 H        0.927     0.114     1.664     2.017
    93   1 H        0.927     0.095     1.828     2.114
    94   1 H        0.927     0.078     2.003     2.213
    95   1 H        0.861     0.232     0.957     1.532
    96   1 H        0.861     0.240     0.921     1.503
    97   1 H        0.861     0.216     1.029     1.589
    98   1 H        0.927     0.110     1.693     2.035
    99   1 H        0.929     0.075     2.029     2.227
   100   1 H        0.927     0.081     1.965     2.192
   101   1 H        0.927     0.073     2.051     2.239
   102   1 H        0.927     0.077     2.007     2.215
   103   1 H        0.927     0.073     2.048     2.238
   104   1 H        0.927     0.096     1.818     2.109
   105   1 H        0.927     0.091     1.865     2.136
   106   1 H        0.861     0.250     0.885     1.473
   107   1 H        0.861     0.253     0.873     1.464
   108   1 H        0.861     0.250     0.883     1.472
   109   1 H        0.861     0.256     0.861     1.453
   110   1 H        0.860     0.169     1.281     1.773
   111   1 H        0.860     0.184     1.194     1.712
   112   1 H        0.927     0.059     2.207     2.323
   113   1 H        0.929     0.080     1.981     2.201
   114   1 H        0.927     0.059     2.207     2.323
   115   1 H        0.926     0.088     1.895     2.153
   116   1 H        0.927     0.083     1.946     2.181
   117   1 H        0.927     0.064     2.148     2.292
   118   1 H        0.861     0.209     1.061     1.614
   119   1 H        0.861     0.228     0.972     1.544
   120   1 H        0.860     0.159     1.340     1.813
   121   1 H        0.860     0.169     1.281     1.773
   122   1 H        0.927     0.053     2.287     2.365
   123   1 H        0.927     0.060     2.196     2.318
   124   1 H        0.927     0.048     2.349     2.397
   125   1 H        0.927     0.065     2.138     2.286
   126   1 H        0.861     0.243     0.912     1.496
   127   1 H        0.927     0.090     1.879     2.144
   128   1 H        0.929     0.081     1.963     2.191
   129   1 H        0.926     0.072     2.066     2.247
   130   1 H        0.927     0.087     1.903     2.157
   131   1 H        0.927     0.097     1.808     2.103
   132   1 H        0.927     0.076     2.024     2.225
   133   1 H        0.860     0.167     1.290     1.779
   134   1 H        0.860     0.173     1.254     1.754
   135   1 H        0.927     0.063     2.159     2.298
   136   1 H        0.927     0.096     1.823     2.111
   137   1 H        0.927     0.088     1.897     2.154
   138   1 H        0.929     0.069     2.099     2.265
   139   1 H        0.861     0.231     0.960     1.534
   140   1 H        0.926     0.100     1.787     2.091
   141   1 H        0.927     0.064     2.155     2.296
   142   1 H        0.927     0.062     2.172     2.305
   143   1 H        0.927     0.029     2.596     2.520
   144   1 H        0.927     0.040     2.448     2.447
   145   1 H        0.926     0.040     2.448     2.447
   146   1 H        0.926     0.046     2.365     2.405
   147   1 H        0.927     0.044     2.399     2.422
   148   1 H        0.927     0.041     2.432     2.439
   149   1 H        0.927     0.045     2.387     2.416
   150   1 H        0.861     0.244     0.905     1.490
   151   1 H        0.926     0.106     1.730     2.057
   152   1 H        0.929     0.085     1.929     2.172
   153   1 H        0.927     0.097     1.813     2.105
   154   1 H        0.927     0.091     1.869     2.138
   155   1 H        0.929     0.076     2.017     2.221
   156   1 H        0.860     0.232     0.958     1.533
   157   1 H        0.858     0.211     1.053     1.608

 Mol. C6AA /au·bohr⁶  :     231685.104560
 Mol. C8AA /au·bohr⁸  :    5162897.485291
 Mol. α(0) /au        :        721.996394


Wiberg/Mayer (AO) data.
largest (>0.10) Wiberg bond orders for each atom

 ---------------------------------------------------------------------------
     #   Z sym  total        # sym  WBO       # sym  WBO       # sym  WBO
 ---------------------------------------------------------------------------
     1   7 N    2.985 --     2 C    1.021    80 H    0.951    79 H    0.939
     2   6 C    3.978 --     1 N    1.021     5 C    0.969    81 H    0.948
                             3 C    0.936
     3   6 C    3.945 --     4 O    1.660     9 N    1.280     2 C    0.936
     4   8 O    1.966 --     3 C    1.660     9 N    0.191
     5   6 C    3.987 --     6 C    0.994    82 H    0.974    83 H    0.973
                             2 C    0.969
     6   6 C    3.995 --     7 C    1.009     8 C    1.005     5 C    0.994
                            84 H    0.959
     7   6 C    3.994 --     6 C    1.009    85 H    0.987    87 H    0.986
                            86 H    0.986
     8   6 C    3.995 --     6 C    1.005    88 H    0.988    89 H    0.987
                            90 H    0.982
     9   7 N    3.448 --     3 C    1.280    10 C    0.972    91 H    0.920
                             4 O    0.191
    10   6 C    3.958 --    13 C    0.983     9 N    0.972    92 H    0.946
                            11 C    0.940
    11   6 C    3.953 --    12 O    1.654    17 N    1.286    10 C    0.940
    12   8 O    1.970 --    11 C    1.654    17 N    0.196
    13   6 C    3.992 --    10 C    0.983    94 H    0.963    93 H    0.955
                            14 C    0.950
    14   6 C    3.946 --    15 O    1.652    16 N    1.319    13 C    0.950
    15   8 O    1.955 --    14 C    1.652    16 N    0.201
    16   7 N    3.400 --    14 C    1.319    95 H    0.929    96 H    0.921
                            15 O    0.201
    17   7 N    3.456 --    11 C    1.286    18 C    0.979    97 H    0.921
                            12 O    0.196
    18   6 C    3.963 --    17 N    0.979    21 C    0.971    19 C    0.962
                            98 H    0.932
    19   6 C    3.894 --    20 O    1.917    18 C    0.962    99 H    0.949
    20   8 O    2.058 --    19 C    1.917
    21   6 C    3.985 --    22 C    1.004   101 H    0.972    18 C    0.971
                           100 H    0.969
    22   6 C    3.991 --    21 C    1.004    23 C    1.001   102 H    0.967
                           103 H    0.964
    23   6 C    3.951 --    22 C    1.001    24 N    0.979   104 H    0.969
                           105 H    0.959
    24   7 N    3.472 --    25 C    1.318    23 C    0.979   156 H    0.919
                            27 N    0.101    26 N    0.101
    25   6 C    3.976 --    26 N    1.319    24 N    1.318    27 N    1.310
    26   7 N    3.396 --    25 C    1.319   107 H    0.918   106 H    0.909
                            24 N    0.101    27 N    0.100
    27   7 N    3.384 --    25 C    1.310   108 H    0.920   109 H    0.917
                            24 N    0.101    26 N    0.100
    28   7 N    2.959 --    29 C    1.005   110 H    0.958   111 H    0.951
    29   6 C    3.974 --    28 N    1.005    30 C    0.972    32 C    0.963
                           112 H    0.953
    30   6 C    3.886 --    31 O    1.901    29 C    0.972   113 H    0.949
    31   8 O    2.063 --    30 C    1.901
    32   6 C    3.985 --    33 C    0.987   114 H    0.976   115 H    0.967
                            29 C    0.963
    33   6 C    3.993 --    32 C    0.987   117 H    0.978    34 C    0.965
                           116 H    0.961
    34   6 C    3.942 --    35 O    1.665    36 N    1.287    33 C    0.965
    35   8 O    1.962 --    34 C    1.665    36 N    0.199
    36   7 N    3.387 --    34 C    1.287   118 H    0.934   119 H    0.922
                            35 O    0.199
    37   7 N    2.973 --    38 C    0.999   120 H    0.962   121 H    0.956
    38   6 C    3.974 --    41 C    1.003    37 N    0.999   122 H    0.945
                            39 C    0.928
    39   6 C    3.938 --    40 O    1.585    42 N    1.346    38 C    0.928
    40   8 O    1.976 --    39 C    1.585    42 N    0.191
    41   6 C    3.988 --    38 C    1.003   123 H    0.982   124 H    0.979
                           125 H    0.977
    42   7 N    3.493 --    39 C    1.346    43 C    0.968   126 H    0.894
                            40 O    0.191
    43   6 C    3.957 --    44 C    0.972    42 N    0.968    46 C    0.965
                           127 H    0.946
    44   6 C    3.894 --    45 O    1.903    43 C    0.972   128 H    0.946
    45   8 O    2.044 --    44 C    1.903
    46   6 C    3.979 --    47 C    1.009   129 H    0.971    43 C    0.965
                           130 H    0.965
    47   6 C    3.812 --    46 C    1.009   131 H    0.959   132 H    0.958
                            48 C    0.837
    48   6 C    3.895 --    50 O    1.521    49 O    1.515    47 C    0.837
    49   8 O    1.784 --    48 C    1.515    50 O    0.235
    50   8 O    1.790 --    48 C    1.521    49 O    0.235
    51   7 N    2.980 --    52 C    1.006   133 H    0.956   134 H    0.951
    52   6 C    3.966 --    51 N    1.006    55 C    0.960    53 C    0.950
                           135 H    0.940
    53   6 C    3.949 --    54 O    1.621    61 N    1.309    52 C    0.950
    54   8 O    1.933 --    53 C    1.621    61 N    0.194
    55   6 C    3.987 --    56 C    1.023    52 C    0.960   136 H    0.952
                           137 H    0.947
    56   6 C    3.905 --    58 C    1.498    57 N    1.178    55 C    1.023
                            59 C    0.126
    57   7 N    3.032 --    59 C    1.638    56 C    1.178    60 N    0.121
    58   6 C    3.900 --    56 C    1.498    60 N    1.212   138 H    0.969
                            59 C    0.131
    59   6 C    3.591 --    57 N    1.638    60 N    1.625    58 C    0.131
                            56 C    0.126
    60   7 N    3.032 --    59 C    1.625    58 C    1.212    57 N    0.121
    61   7 N    3.463 --    53 C    1.309    62 C    0.979   139 H    0.890
                            54 O    0.194
    62   6 C    3.939 --    61 N    0.979    65 C    0.971   140 H    0.946
                            63 C    0.918
    63   6 C    3.937 --    64 O    1.645    69 N    1.305    62 C    0.918
    64   8 O    1.941 --    63 C    1.645    69 N    0.193
    65   6 C    3.982 --    66 C    0.991   141 H    0.972    62 C    0.971
                           142 H    0.966
    66   6 C    3.991 --    67 C    1.008    68 C    1.007    65 C    0.991
                           143 H    0.969
    67   6 C    3.994 --    66 C    1.008   146 H    0.985   144 H    0.984
                           145 H    0.981
    68   6 C    3.994 --    66 C    1.007   148 H    0.987   147 H    0.987
                           149 H    0.981
    69   7 N    3.460 --    63 C    1.305    70 C    0.972   150 H    0.878
                            64 O    0.193
    70   6 C    3.959 --    71 C    0.973    69 N    0.972    73 C    0.960
                           151 H    0.950
    71   6 C    3.896 --    72 O    1.915    70 C    0.973   152 H    0.946
    72   8 O    2.048 --    71 C    1.915
    73   6 C    3.985 --    74 C    1.014    70 C    0.960   154 H    0.958
                           153 H    0.951
    74   6 C    3.904 --    76 C    1.562    75 N    1.150    73 C    1.014
                            77 C    0.116
    75   7 N    3.553 --    77 C    1.320    74 C    1.150   157 H    0.916
    76   6 C    3.895 --    74 C    1.562    78 N    1.208   155 H    0.966
    77   6 C    3.260 --    78 N    1.718    75 N    1.320    74 C    0.116
    78   7 N    3.091 --    77 C    1.718    76 C    1.208
    79   1 H    0.969 --     1 N    0.939
    80   1 H    0.976 --     1 N    0.951
    81   1 H    0.996 --     2 C    0.948
    82   1 H    0.997 --     5 C    0.974
    83   1 H    0.998 --     5 C    0.973
    84   1 H    0.999 --     6 C    0.959
    85   1 H    0.998 --     7 C    0.987
    86   1 H    0.998 --     7 C    0.986
    87   1 H    0.997 --     7 C    0.986
    88   1 H    0.998 --     8 C    0.988
    89   1 H    0.998 --     8 C    0.987
    90   1 H    0.999 --     8 C    0.982
    91   1 H    0.959 --     9 N    0.920
    92   1 H    0.987 --    10 C    0.946
    93   1 H    0.990 --    13 C    0.955
    94   1 H    0.994 --    13 C    0.963
    95   1 H    0.946 --    16 N    0.929
    96   1 H    0.941 --    16 N    0.921
    97   1 H    0.953 --    17 N    0.921
    98   1 H    0.988 --    18 C    0.932
    99   1 H    0.994 --    19 C    0.949
   100   1 H    0.993 --    21 C    0.969
   101   1 H    0.995 --    21 C    0.972
   102   1 H    0.994 --    22 C    0.967
   103   1 H    0.995 --    22 C    0.964
   104   1 H    0.991 --    23 C    0.969
   105   1 H    0.991 --    23 C    0.959
   106   1 H    0.938 --    26 N    0.909
   107   1 H    0.936 --    26 N    0.918
   108   1 H    0.937 --    27 N    0.920
   109   1 H    0.934 --    27 N    0.917
   110   1 H    0.970 --    28 N    0.958
   111   1 H    0.965 --    28 N    0.951
   112   1 H    0.983 --    29 C    0.953
   113   1 H    0.992 --    30 C    0.949
   114   1 H    0.996 --    32 C    0.976
   115   1 H    0.992 --    32 C    0.967
   116   1 H    0.993 --    33 C    0.961
   117   1 H    0.996 --    33 C    0.978
   118   1 H    0.956 --    36 N    0.934
   119   1 H    0.948 --    36 N    0.922
   120   1 H    0.974 --    37 N    0.962
   121   1 H    0.970 --    37 N    0.956
   122   1 H    0.987 --    38 C    0.945
   123   1 H    0.995 --    41 C    0.982
   124   1 H    0.997 --    41 C    0.979
   125   1 H    0.996 --    41 C    0.977
   126   1 H    0.940 --    42 N    0.894
   127   1 H    0.991 --    43 C    0.946
   128   1 H    0.991 --    44 C    0.946
   129   1 H    0.994 --    46 C    0.971
   130   1 H    0.990 --    46 C    0.965
   131   1 H    0.988 --    47 C    0.959
   132   1 H    0.991 --    47 C    0.958
   133   1 H    0.971 --    51 N    0.956
   134   1 H    0.967 --    51 N    0.951
   135   1 H    0.978 --    52 C    0.940
   136   1 H    0.989 --    55 C    0.952
   137   1 H    0.988 --    55 C    0.947
   138   1 H    0.995 --    58 C    0.969
   139   1 H    0.947 --    61 N    0.890
   140   1 H    0.988 --    62 C    0.946
   141   1 H    0.995 --    65 C    0.972
   142   1 H    0.996 --    65 C    0.966
   143   1 H    0.999 --    66 C    0.969
   144   1 H    0.998 --    67 C    0.984
   145   1 H    0.998 --    67 C    0.981
   146   1 H    0.997 --    67 C    0.985
   147   1 H    0.998 --    68 C    0.987
   148   1 H    0.998 --    68 C    0.987
   149   1 H    0.998 --    68 C    0.981
   150   1 H    0.940 --    69 N    0.878
   151   1 H    0.988 --    70 C    0.950
   152   1 H    0.991 --    71 C    0.946
   153   1 H    0.990 --    73 C    0.951
   154   1 H    0.989 --    73 C    0.958
   155   1 H    0.993 --    76 C    0.966
   156   1 H    0.946 --    24 N    0.919
   157   1 H    0.955 --    75 N    0.916
 ---------------------------------------------------------------------------

Topologies differ in total number of bonds
Writing topology from bond orders to xtbtopo.mol

molecular dipole:
                 x           y           z       tot (Debye)
 q only:       33.703      78.307      22.120
   full:       33.703      78.779      21.541     224.569
molecular quadrupole (traceless):
                xx          xy          yy          xz          yz          zz
 q only:    -2177.311    3837.384    5553.336     808.480    2529.709   -3376.024
  q+dip:    -2197.401    3849.135    5617.667     816.817    2452.802   -3420.266
   full:    -2200.391    3849.520    5621.255     818.233    2451.910   -3420.865


           -------------------------------------------------
          | TOTAL ENERGY             -245.789647629535 Eh   |
          | GRADIENT NORM               0.353042010720 Eh/α |
          | HOMO-LUMO GAP               0.039515905955 eV   |
           -------------------------------------------------
########################################################################
[WARNING] Runtime exception occurred
-2- restart_readRestart: Dimension missmatch in restart file.
-1- restart_readRestart: Number of electron missmatch in restart file.
########################################################################

------------------------------------------------------------------------
 * finished run on 2025/05/05 at 16:41:05.323     
------------------------------------------------------------------------
 total:
 * wall-time:     0 d,  0 h,  0 min,  1.378 sec
 *  cpu-time:     0 d,  0 h,  0 min, 38.521 sec
 * ratio c/w:    27.957 speedup
 SCF:
 * wall-time:     0 d,  0 h,  0 min,  1.364 sec
 *  cpu-time:     0 d,  0 h,  0 min, 38.202 sec
 * ratio c/w:    28.003 speedup

