      -----------------------------------------------------------      
     |                   =====================                   |     
     |                           x T B                           |     
     |                   =====================                   |     
     |                         S. Grimme                         |     
     |          Mulliken Center for Theoretical Chemistry        |     
     |                    University of Bonn                     |     
      -----------------------------------------------------------      

   * xtb version 6.7.1 (edcfbbe) compiled by 'conda@afd1a870197c' on 2025-04-11

   xtb is free software: you can redistribute it and/or modify it under
   the terms of the GNU Lesser General Public License as published by
   the Free Software Foundation, either version 3 of the License, or
   (at your option) any later version.
   
   xtb is distributed in the hope that it will be useful,
   but WITHOUT ANY WARRANTY; without even the implied warranty of
   MERCHANTABILITY or FITNESS FOR A PARTICULAR PURPOSE.  See the
   GNU Lesser General Public License for more details.
   
   Cite this work as:
   * C. Bannwarth, E. Caldeweyher, S. Ehlert, A. Hansen, P. Pracht,
     J. Seibert, S. Spicher, S. Grimme, WIREs Comput. Mol. Sci., 2020, 11,
     e01493. DOI: 10.1002/wcms.1493
   
   for GFN2-xTB:
   * C. Bannwarth, S. Ehlert and S. Grimme., J. Chem. Theory Comput., 2019,
     15, 1652-1671. DOI: 10.1021/acs.jctc.8b01176
   for GFN1-xTB:
   * S. Grimme, C. Bannwarth, P. Shushkov, J. Chem. Theory Comput., 2017,
     13, 1989-2009. DOI: 10.1021/acs.jctc.7b00118
   for GFN0-xTB:
   * P. Pracht, E. Caldeweyher, S. Ehlert, S. Grimme, ChemRxiv, 2019, preprint.
     DOI: 10.26434/chemrxiv.8326202.v1
   for GFN-FF:
   * S. Spicher and S. Grimme, Angew. Chem. Int. Ed., 2020, 59, 15665-15673.
     DOI: 10.1002/anie.202004239
   
   for ALPB and GBSA implicit solvation:
   * S. Ehlert, M. Stahn, S. Spicher, S. Grimme, J. Chem. Theory Comput.,
     2021, 17, 4250-4261. DOI: 10.1021/acs.jctc.1c00471
   
   for ddCOSMO and CPCM-X implicit solvation:
   * M. Stahn, S. Ehlert, S. Grimme, J. Phys. Chem. A,
     2023, XX, XXXX-XXXX. DOI: 10.1021/acs.jpca.3c04382
   
   for DFT-D4:
   * E. Caldeweyher, C. Bannwarth and S. Grimme, J. Chem. Phys., 2017,
     147, 034112. DOI: 10.1063/1.4993215
   * E. Caldeweyher, S. Ehlert, A. Hansen, H. Neugebauer, S. Spicher,
     C. Bannwarth and S. Grimme, J. Chem. Phys., 2019, 150, 154122.
     DOI: 10.1063/1.5090222
   * E. Caldeweyher, J.-M. Mewes, S. Ehlert and S. Grimme, Phys. Chem. Chem. Phys.
     2020, 22, 8499-8512. DOI: 10.1039/D0CP00502A
   
   for sTDA-xTB:
   * S. Grimme and C. Bannwarth, J. Chem. Phys., 2016, 145, 054103.
     DOI: 10.1063/1.4959605
   
   in the mass-spec context:
   * V. Asgeirsson, C. Bauer and S. Grimme, Chem. Sci., 2017, 8, 4879.
     DOI: 10.1039/c7sc00601b
   * J. Koopman and S. Grimme, ACS Omega 2019, 4, 12, 15120-15133.
     DOI: 10.1021/acsomega.9b02011
   
   for metadynamics refer to:
   * S. Grimme, J. Chem. Theory Comput., 2019, 155, 2847-2862
     DOI: 10.1021/acs.jctc.9b00143
   
   for SPH calculations refer to:
   * S. Spicher and S. Grimme, J. Chem. Theory Comput., 2021, 17, 1701-1714
     DOI: 10.1021/acs.jctc.0c01306
   
   for ONIOM refer to:
   * C. Plett, A. Katbashev, S. Ehlert, S. Grimme, M. Bursch,
     Phys. Chem. Chem. Phys., 2023, 25, 17860-17868. DOI: 10.1039/D3CP02178E
   
   for DIPRO refer to:
   * J. Kohn, N. Gildemeister, S. Grimme, D. Fazzi, A. Hansen,
     J. Chem. Phys., 2023, just accepted.
   
   for PTB refer to:
   * S. Grimme, M. Mueller, A. Hansen, J. Chem. Phys., 2023, 158, 124111.
     DOI: 10.1063/5.0137838
   
   with help from (in alphabetical order)
   P. Atkinson, C. Bannwarth, F. Bohle, G. Brandenburg, E. Caldeweyher
   M. Checinski, S. Dohm, S. Ehlert, S. Ehrlich, I. Gerasimov, C. Hölzer
   A. Katbashev, J. Kohn, J. Koopman, C. Lavigne, S. Lehtola, F. März, M. Müller,
   F. Musil, H. Neugebauer, J. Pisarek, C. Plett, P. Pracht, F. Pultar,
   J. Seibert, P. Shushkov, S. Spicher, M. Stahn, M. Steiner, T. Strunk,
   J. Stückrath, T. Rose, and J. Unsleber
   
 * started run on 2025/05/05 at 16:52:55.553     
   ID    Z sym.   atoms
    1    7 N      1, 9, 17, 18, 24, 27, 28, 35, 41, 44, 45, 53, 62, 69, 71-73
    2    6 C      2, 3, 5-8, 10, 11, 13-15, 19, 20, 22, 23, 25, 26, 29, 30,
                  32-34, 36, 37, 39, 40, 42, 43, 46, 47, 49, 50, 54, 55,
                  57-59, 63, 64, 66-68, 70, 74, 75, 77, 79
    3    8 O      4, 12, 16, 21, 31, 38, 48, 51, 52, 56, 60, 61, 65, 76, 78
    4    1 H      80-156

           -------------------------------------------------
          |                Calculation Setup                |
           -------------------------------------------------

          program call               : xtb /tmp/tmp_s_7mfqy/HID/input.xyz --alpb ether --chrg -1 --input /tmp/tmp_s_7mfqy/HID/constraints.inp --gfn 2
          hostname                   : fedora
          coordinate file            : /tmp/tmp_s_7mfqy/HID/input.xyz
          omp threads                :                    32


molecular fragmentation (1/2 indicates fragments):
111111112222222222222222222222222222222222222222222222222222222222222222
222222211111111111112222222222222222222222222222222222222222222222222222
222222222222
# atoms in fragment 1/2:    21   135
 fragment masses (1/2) :      115.17     1005.05
CMA distance (Bohr)    :  11.085
constraining FC (au)   :  0.0500
########################################################################
[WARNING] Please study the warnings concerning your input carefully
-1- readin_getIntValue: could not parse 'S'
########################################################################

           -------------------------------------------------
          |                 G F N 2 - x T B                 |
           -------------------------------------------------

        Reference                      10.1021/acs.jctc.8b01176
      * Hamiltonian:
        H0-scaling (s, p, d)           1.850000    2.230000    2.230000
        zeta-weighting                 0.500000
      * Dispersion:
        s8                             2.700000
        a1                             0.520000
        a2                             5.000000
        s9                             5.000000
      * Repulsion:
        kExp                           1.500000    1.000000
        rExp                           1.000000
      * Coulomb:
        alpha                          2.000000
        third order                    shell-resolved
        anisotropic                    true
        a3                             3.000000
        a5                             4.000000
        cn-shift                       1.200000
        cn-exp                         4.000000
        max-rad                        5.000000

      * Solvation model:               ALPB
        Solvent                        ether
        Parameter file                 internal GFN2-xTB/ALPB
        Dielectric constant                4.3300E+00
        Reference state                gsolv [1 M gas/solution]
        Free energy shift                  4.9534E-03 Eh       3.1083E+00 kcal/mol
        Temperature                        2.9815E+02 K
        Density                            7.1300E-01 kg/L
        Solvent mass                       7.4120E+01 g/mol
        Interaction kernel             P16
        Born radius scaling (c1)           1.5847E+00
        Born radii integrator          GBOBC
        Born offset                        0.0000E+00 a0       0.0000E+00 AA
        H-bond correction              true
        Ion screening                  false
        Surface tension                    1.0000E-05 Eh       1.5569E+01 dyn/cm
        Grid points                               230 per atom

          ...................................................
          :                      SETUP                      :
          :.................................................:
          :  # basis functions                 393          :
          :  # atomic orbitals                 393          :
          :  # shells                          235          :
          :  # electrons                       441          :
          :  max. iterations                   250          :
          :  Hamiltonian                  GFN2-xTB          :
          :  restarted?                      false          :
          :  GBSA solvation                   true          :
          :  PC potential                    false          :
          :  electronic temp.          300.0000000     K    :
          :  accuracy                    1.0000000          :
          :  -> integral cutoff          0.2500000E+02      :
          :  -> integral neglect         0.1000000E-07      :
          :  -> SCF convergence          0.1000000E-05 Eh   :
          :  -> wf. convergence          0.1000000E-03 e    :
          :  Broyden damping             0.4000000          :
          :  net charge                         -1          :
          :  unpaired electrons                  0          :
          ...................................................

 iter      E             dE          RMSdq      gap      omega  full diag
   1   -251.4013677 -0.251401E+03  0.486E+00    0.06       0.0  T
   2   -247.6803327  0.372103E+01  0.472E+00    0.02       1.0  T
   3   -252.1379329 -0.445760E+01  0.294E+00    0.19       1.0  T
   4   -253.2504332 -0.111250E+01  0.199E+00    0.13       1.0  T
   5   -253.0922068  0.158226E+00  0.197E+00    1.18       1.0  T
   6   -252.8160409  0.276166E+00  0.199E+00    0.31       1.0  T
   7   -253.6291270 -0.813086E+00  0.108E+00    0.35       1.0  T
   8   -253.2860062  0.343121E+00  0.126E+00    0.07       1.0  T
   9   -253.6600760 -0.374070E+00  0.895E-01    0.10       1.0  T
  10   -253.4150287  0.245047E+00  0.117E+00    0.13       1.0  T
  11   -253.6866632 -0.271634E+00  0.709E-01    0.18       1.0  T
  12   -253.6911717 -0.450846E-02  0.663E-01    0.16       1.0  T
  13   -253.7108045 -0.196328E-01  0.564E-01    0.11       1.0  T
  14   -253.6929611  0.178434E-01  0.572E-01    0.16       1.0  T
  15   -253.7066604 -0.136994E-01  0.525E-01    0.01       1.0  T
  16   -253.7234676 -0.168072E-01  0.450E-01    0.01       1.0  T
  17   -253.7273591 -0.389155E-02  0.405E-01    0.01       1.0  T
  18   -253.3679490  0.359410E+00  0.115E+00    0.12       1.0  T
  19   -253.6902091 -0.322260E+00  0.520E-01    0.04       1.0  T
  20   -253.7577329 -0.675238E-01  0.173E-01    0.04       1.0  T
  21   -253.7476685  0.100644E-01  0.237E-01    0.04       1.0  T
  22   -253.7461821  0.148632E-02  0.234E-01    0.05       1.0  T
  23   -253.7480365 -0.185435E-02  0.221E-01    0.01       1.0  T
  24   -253.7498885 -0.185202E-02  0.206E-01    0.03       1.0  T
  25   -253.7452575  0.463105E-02  0.243E-01    0.03       1.0  T
  26   -253.7466521 -0.139467E-02  0.232E-01    0.03       1.0  T
  27   -253.7509268 -0.427471E-02  0.193E-01    0.04       1.0  T
  28   -253.7507294  0.197469E-03  0.190E-01    0.04       1.0  T
  29   -253.7562761 -0.554670E-02  0.141E-01    0.04       1.0  T
  30   -253.7563593 -0.832635E-04  0.128E-01    0.04       1.0  T
  31   -253.7580641 -0.170477E-02  0.101E-01    0.04       1.0  T
  32   -253.7590004 -0.936250E-03  0.822E-02    0.04       1.0  T
  33   -253.7606547 -0.165430E-02  0.276E-02    0.03       1.0  T
  34   -253.7608532 -0.198501E-03  0.451E-03    0.03       1.8  T
  35   -253.7608574 -0.428537E-05  0.190E-03    0.03       4.2  T
  36   -253.7608576 -0.111696E-06  0.148E-03    0.03       5.4  T
  37   -253.7608578 -0.283467E-06  0.101E-03    0.03       8.0  T
  38   -253.7608580 -0.156061E-06  0.713E-04    0.03      11.2  T
  39   -253.7608578  0.203007E-06  0.106E-03    0.03       7.6  T
  40   -253.7608581 -0.305500E-06  0.369E-04    0.03      21.7  T

   *** convergence criteria satisfied after 40 iterations ***

         #    Occupation            Energy/Eh            Energy/eV
      -------------------------------------------------------------
         1        2.0000           -0.7450710             -20.2744
       ...           ...                  ...                  ...
       215        2.0000           -0.3485658              -9.4850
       216        2.0000           -0.3451968              -9.3933
       217        2.0000           -0.3448634              -9.3842
       218        1.9565           -0.3382386              -9.2039
       219        1.9212           -0.3376474              -9.1879
       220        1.7251           -0.3363009              -9.1512
       221        0.9247           -0.3340953              -9.0912 (HOMO)
       222        0.4726           -0.3329399              -9.0598 (LUMO)
       223                         -0.2741943              -7.4612
       224                         -0.2698808              -7.3438
       225                         -0.2570476              -6.9946
       226                         -0.2520795              -6.8594
       ...                                ...                  ...
       393                          0.7087580              19.2863
      -------------------------------------------------------------
                  HL-Gap            0.0011555 Eh            0.0314 eV
             Fermi-level           -0.3342718 Eh           -9.0960 eV

 SCC (total)                   0 d,  0 h,  0 min,  1.162 sec
 SCC setup                      ...        0 min,  0.002 sec (  0.176%)
 Dispersion                     ...        0 min,  0.005 sec (  0.407%)
 classical contributions        ...        0 min,  0.000 sec (  0.027%)
 integral evaluation            ...        0 min,  0.011 sec (  0.938%)
 iterations                     ...        0 min,  1.117 sec ( 96.196%)
 molecular gradient             ...        0 min,  0.022 sec (  1.935%)
 printout                       ...        0 min,  0.004 sec (  0.319%)

         :::::::::::::::::::::::::::::::::::::::::::::::::::::
         ::                     SUMMARY                     ::
         :::::::::::::::::::::::::::::::::::::::::::::::::::::
         :: total energy            -250.690741494485 Eh    ::
         :: total w/o Gsasa/hb      -250.621797237266 Eh    ::
         :: gradient norm              0.322903142181 Eh/a0 ::
         :: HOMO-LUMO gap              0.031441757058 eV    ::
         ::.................................................::
         :: SCC energy              -253.748209390858 Eh    ::
         :: -> isotropic ES            0.877956739948 Eh    ::
         :: -> anisotropic ES          0.001111583709 Eh    ::
         :: -> anisotropic XC          0.087619078603 Eh    ::
         :: -> dispersion             -0.188730545867 Eh    ::
         :: -> Gsolv                  -0.235678368034 Eh    ::
         ::    -> Gelec               -0.166734110815 Eh    ::
         ::    -> Gsasa               -0.057815440372 Eh    ::
         ::    -> Ghb                 -0.016082254424 Eh    ::
         ::    -> Gshift               0.004953437577 Eh    ::
         :: repulsion energy           3.057467896373 Eh    ::
         :: add. restraining           0.000000000000 Eh    ::
         :: total charge              -0.999999999973 e     ::
         :::::::::::::::::::::::::::::::::::::::::::::::::::::

           -------------------------------------------------
          |                Property Printout                |
           -------------------------------------------------

    * Orbital Energies and Occupations

         #    Occupation            Energy/Eh            Energy/eV
      -------------------------------------------------------------
         1        2.0000           -0.7450710             -20.2744
       ...           ...                  ...                  ...
       209        2.0000           -0.3541677              -9.6374
       210        2.0000           -0.3535330              -9.6201
       211        2.0000           -0.3524106              -9.5896
       212        2.0000           -0.3518561              -9.5745
       213        2.0000           -0.3517061              -9.5704
       214        2.0000           -0.3502476              -9.5307
       215        2.0000           -0.3485658              -9.4850
       216        2.0000           -0.3451968              -9.3933
       217        2.0000           -0.3448634              -9.3842
       218        1.9565           -0.3382386              -9.2039
       219        1.9212           -0.3376474              -9.1879
       220        1.7251           -0.3363009              -9.1512
       221        0.9247           -0.3340953              -9.0912 (HOMO)
       222        0.4726           -0.3329399              -9.0598 (LUMO)
       223                         -0.2741943              -7.4612
       224                         -0.2698808              -7.3438
       225                         -0.2570476              -6.9946
       226                         -0.2520795              -6.8594
       227                         -0.2325500              -6.3280
       228                         -0.2042064              -5.5567
       229                         -0.2015106              -5.4834
       230                         -0.1995440              -5.4299
       231                         -0.1989231              -5.4130
       232                         -0.1986130              -5.4045
       ...                                ...                  ...
       393                          0.7087580              19.2863
      -------------------------------------------------------------
                  HL-Gap            0.0011555 Eh            0.0314 eV
             Fermi-level           -0.3342718 Eh           -9.0960 eV

     #   Z          covCN         q      C6AA      α(0)
     1   7 N        2.632    -0.360    29.295     8.039
     2   6 C        3.784     0.042    19.891     6.353
     3   6 C        2.770     0.197    23.792     7.989
     4   8 O        0.856    -0.366    21.013     6.146
     5   6 C        3.819    -0.075    21.924     6.664
     6   6 C        3.847    -0.014    20.785     6.485
     7   6 C        3.757    -0.114    22.734     6.798
     8   6 C        3.758    -0.119    22.824     6.811
     9   7 N        2.630    -0.370    29.539     8.072
    10   6 C        3.784     0.041    19.907     6.356
    11   6 C        2.764     0.198    23.775     7.985
    12   8 O        0.856    -0.375    21.185     6.171
    13   6 C        3.806    -0.056    21.571     6.612
    14   6 C        3.807    -0.099    22.381     6.735
    15   6 C        2.742     0.279    22.272     7.727
    16   8 O        0.858    -0.490    23.575     6.510
    17   7 N        2.638    -0.276    27.144     7.738
    18   7 N        2.631    -0.358    29.233     8.030
    19   6 C        3.789     0.040    19.907     6.355
    20   6 C        2.753     0.268    22.467     7.762
    21   8 O        0.858    -0.492    23.619     6.516
    22   6 C        3.810    -0.072    21.872     6.657
    23   6 C        3.077     0.046    26.881     8.500
    24   7 N        1.984    -0.292    28.367     7.899
    25   6 C        3.053    -0.005    28.092     8.692
    26   6 C        2.100     0.115    28.067     8.560
    27   7 N        1.971    -0.314    28.967     7.982
    28   7 N        2.687    -0.172    24.727     7.385
    29   6 C        3.792     0.015    20.328     6.421
    30   6 C        2.758     0.273    22.380     7.747
    31   8 O        0.860    -0.489    23.534     6.504
    32   6 C        3.850    -0.018    20.859     6.496
    33   6 C        3.758    -0.124    22.923     6.826
    34   6 C        3.758    -0.125    22.955     6.831
    35   7 N        2.691    -0.160    24.457     7.345
    36   6 C        3.803     0.027    20.127     6.387
    37   6 C        2.757     0.266    22.507     7.769
    38   8 O        0.859    -0.498    23.739     6.532
    39   6 C        3.812    -0.087    22.147     6.698
    40   6 C        3.091     0.021    27.421     8.583
    41   7 N        2.846    -0.070    22.586     7.058
    42   6 C        3.056    -0.006    28.120     8.696
    43   6 C        2.108     0.032    30.031     8.855
    44   7 N        1.982    -0.255    27.443     7.769
    45   7 N        2.691    -0.152    24.289     7.320
    46   6 C        3.796     0.025    20.152     6.392
    47   6 C        2.761     0.277    22.320     7.737
    48   8 O        0.859    -0.467    23.072     6.440
    49   6 C        3.807    -0.104    22.478     6.749
    50   6 C        2.688     0.363    20.843     7.472
    51   8 O        0.857    -0.610    26.376     6.886
    52   8 O        0.856    -0.635    26.997     6.966
    53   7 N        2.688    -0.171    24.700     7.381
    54   6 C        3.798     0.030    20.078     6.380
    55   6 C        2.765     0.210    23.541     7.946
    56   8 O        0.856    -0.356    20.813     6.117
    57   6 C        3.810    -0.058    21.618     6.618
    58   6 C        3.805    -0.082    22.063     6.687
    59   6 C        2.687     0.373    20.682     7.443
    60   8 O        0.856    -0.567    25.322     6.747
    61   8 O        0.857    -0.556    25.064     6.712
    62   7 N        2.630    -0.354    29.125     8.015
    63   6 C        3.789     0.028    20.117     6.388
    64   6 C        2.759     0.268    22.469     7.762
    65   8 O        0.858    -0.479    23.315     6.474
    66   6 C        3.817    -0.075    21.923     6.664
    67   6 C        3.807    -0.077    21.964     6.672
    68   6 C        3.747    -0.027    21.122     6.555
    69   7 N        2.702    -0.137    23.976     7.272
    70   6 C        2.738     0.237    23.034     7.858
    71   7 N        2.658    -0.263    26.811     7.690
    72   7 N        2.657    -0.259    26.721     7.677
    73   7 N        2.692    -0.168    24.634     7.371
    74   6 C        3.793     0.016    20.315     6.418
    75   6 C        2.774     0.205    23.639     7.963
    76   8 O        0.856    -0.362    20.936     6.135
    77   6 C        3.731     0.116    18.778     6.186
    78   8 O        1.654    -0.478    22.433     6.394
    79   6 C        3.757    -0.129    23.028     6.842
    80   1 H        0.860     0.150     1.400     1.854
    81   1 H        0.860     0.157     1.354     1.823
    82   1 H        0.927     0.031     2.575     2.509
    83   1 H        0.929     0.061     2.188     2.313
    84   1 H        0.927     0.061     2.189     2.314
    85   1 H        0.927     0.065     2.145     2.290
    86   1 H        0.927     0.041     2.437     2.441
    87   1 H        0.927     0.036     2.504     2.474
    88   1 H        0.927     0.046     2.366     2.405
    89   1 H        0.927     0.037     2.483     2.464
    90   1 H        0.927     0.041     2.441     2.443
    91   1 H        0.927     0.035     2.517     2.481
    92   1 H        0.927     0.039     2.457     2.451
    93   1 H        0.860     0.149     1.411     1.860
    94   1 H        0.860     0.173     1.254     1.754
    95   1 H        0.927     0.048     2.343     2.393
    96   1 H        0.929     0.076     2.023     2.224
    97   1 H        0.927     0.055     2.254     2.348
    98   1 H        0.926     0.071     2.075     2.253
    99   1 H        0.927     0.074     2.045     2.236
   100   1 H        0.927     0.057     2.233     2.337
   101   1 H        0.861     0.203     1.092     1.637
   102   1 H        0.861     0.229     0.970     1.542
   103   1 H        0.860     0.154     1.371     1.834
   104   1 H        0.860     0.165     1.302     1.787
   105   1 H        0.927     0.012     2.850     2.640
   106   1 H        0.927     0.077     2.005     2.214
   107   1 H        0.926     0.054     2.265     2.354
   108   1 H        0.929     0.031     2.576     2.510
   109   1 H        0.861     0.203     1.091     1.636
   110   1 H        0.927     0.069     2.094     2.263
   111   1 H        0.927     0.048     2.343     2.394
   112   1 H        0.927     0.052     2.297     2.370
   113   1 H        0.927     0.040     2.454     2.450
   114   1 H        0.927     0.060     2.201     2.320
   115   1 H        0.927     0.051     2.311     2.377
   116   1 H        0.926     0.058     2.219     2.329
   117   1 H        0.927     0.044     2.390     2.417
   118   1 H        0.861     0.210     1.058     1.611
   119   1 H        0.927     0.084     1.940     2.178
   120   1 H        0.927     0.083     1.950     2.184
   121   1 H        0.927     0.097     1.814     2.106
   122   1 H        0.929     0.099     1.794     2.094
   123   1 H        0.861     0.216     1.027     1.587
   124   1 H        0.927     0.083     1.950     2.184
   125   1 H        0.927     0.047     2.354     2.399
   126   1 H        0.927     0.047     2.355     2.400
   127   1 H        0.861     0.204     1.086     1.632
   128   1 H        0.927     0.103     1.754     2.071
   129   1 H        0.929     0.077     2.006     2.214
   130   1 H        0.927     0.061     2.182     2.310
   131   1 H        0.927     0.066     2.133     2.284
   132   1 H        0.927     0.062     2.181     2.309
   133   1 H        0.927     0.060     2.195     2.317
   134   1 H        0.860     0.157     1.354     1.823
   135   1 H        0.860     0.179     1.218     1.729
   136   1 H        0.927     0.043     2.405     2.425
   137   1 H        0.927     0.052     2.300     2.371
   138   1 H        0.927     0.049     2.337     2.390
   139   1 H        0.927     0.065     2.138     2.287
   140   1 H        0.927     0.067     2.119     2.276
   141   1 H        0.927     0.087     1.912     2.162
   142   1 H        0.927     0.085     1.923     2.169
   143   1 H        0.861     0.247     0.894     1.481
   144   1 H        0.861     0.252     0.876     1.466
   145   1 H        0.861     0.243     0.909     1.494
   146   1 H        0.861     0.257     0.858     1.451
   147   1 H        0.861     0.213     1.042     1.599
   148   1 H        0.927     0.106     1.730     2.057
   149   1 H        0.929     0.074     2.038     2.233
   150   1 H        0.926     0.063     2.160     2.298
   151   1 H        0.804     0.332     0.632     1.249
   152   1 H        0.926     0.056     2.243     2.342
   153   1 H        0.927     0.056     2.250     2.345
   154   1 H        0.927     0.065     2.137     2.286
   155   1 H        0.860     0.219     1.013     1.576
   156   1 H        0.858     0.185     1.186     1.706

 Mol. C6AA /au·bohr⁶  :     236635.157158
 Mol. C8AA /au·bohr⁸  :    5263702.970224
 Mol. α(0) /au        :        728.214536


Wiberg/Mayer (AO) data.
largest (>0.10) Wiberg bond orders for each atom

 ---------------------------------------------------------------------------
     #   Z sym  total        # sym  WBO       # sym  WBO       # sym  WBO
 ---------------------------------------------------------------------------
     1   7 N    2.993 --     2 C    1.018    80 H    0.963    81 H    0.954
     2   6 C    3.990 --     1 N    1.018     3 C    0.989     5 C    0.953
                            82 H    0.949
     3   6 C    3.905 --     4 O    1.887     2 C    0.989    83 H    0.948
     4   8 O    2.040 --     3 C    1.887
     5   6 C    3.986 --     6 C    0.992    84 H    0.974    85 H    0.972
                             2 C    0.953
     6   6 C    3.995 --     8 C    1.006     7 C    1.001     5 C    0.992
                            86 H    0.967
     7   6 C    3.993 --     6 C    1.001    87 H    0.988    88 H    0.984
                            89 H    0.980
     8   6 C    3.997 --     6 C    1.006    90 H    0.986    91 H    0.986
                            92 H    0.986
     9   7 N    2.997 --    10 C    1.015    93 H    0.964    94 H    0.946
    10   6 C    3.989 --     9 N    1.015    11 C    0.988    13 C    0.964
                            95 H    0.943
    11   6 C    3.892 --    12 O    1.891    10 C    0.988    96 H    0.949
    12   8 O    2.033 --    11 C    1.891
    13   6 C    3.990 --    14 C    0.997    97 H    0.973    98 H    0.972
                            10 C    0.964
    14   6 C    3.996 --    13 C    0.997    15 C    0.970   100 H    0.966
                            99 H    0.953
    15   6 C    3.945 --    16 O    1.634    17 N    1.314    14 C    0.970
    16   8 O    1.947 --    15 C    1.634    17 N    0.198
    17   7 N    3.409 --    15 C    1.314   101 H    0.940   102 H    0.906
                            16 O    0.198
    18   7 N    2.996 --    19 C    1.017   103 H    0.962   104 H    0.958
    19   6 C    3.990 --    18 N    1.017    22 C    0.960   105 H    0.959
                            20 C    0.946
    20   6 C    3.946 --    21 O    1.640    28 N    1.293    19 C    0.946
    21   8 O    1.947 --    20 C    1.640    28 N    0.195
    22   6 C    3.993 --    23 C    1.013   107 H    0.966   106 H    0.961
                            19 C    0.960
    23   6 C    3.901 --    25 C    1.510    24 N    1.198    22 C    1.013
                            26 C    0.109
    24   7 N    3.002 --    26 C    1.605    23 C    1.198    27 N    0.109
    25   6 C    3.905 --    23 C    1.510    27 N    1.222   108 H    0.970
                            26 C    0.112
    26   6 C    3.405 --    24 N    1.605    27 N    1.538    25 C    0.112
                            23 C    0.109
    27   7 N    2.946 --    26 C    1.538    25 C    1.222    24 N    0.109
    28   7 N    3.464 --    20 C    1.293    29 C    0.975   109 H    0.928
                            21 O    0.195
    29   6 C    3.962 --    28 N    0.975    32 C    0.962   110 H    0.958
                            30 C    0.931
    30   6 C    3.950 --    31 O    1.632    35 N    1.311    29 C    0.931
    31   8 O    1.948 --    30 C    1.632    35 N    0.198
    32   6 C    3.988 --    34 C    1.006    33 C    1.006   111 H    0.969
                            29 C    0.962
    33   6 C    3.993 --    32 C    1.006   112 H    0.986   114 H    0.984
                           113 H    0.977
    34   6 C    3.993 --    32 C    1.006   115 H    0.987   117 H    0.985
                           116 H    0.984
    35   7 N    3.483 --    30 C    1.311    36 C    0.979   118 H    0.922
                            31 O    0.198
    36   6 C    3.968 --    35 N    0.979    39 C    0.959    37 C    0.952
                           119 H    0.940
    37   6 C    3.953 --    38 O    1.614    45 N    1.322    36 C    0.952
    38   8 O    1.934 --    37 C    1.614    45 N    0.200
    39   6 C    3.984 --    40 C    1.018    36 C    0.959   120 H    0.958
                           121 H    0.940
    40   6 C    3.904 --    42 C    1.562    41 N    1.146    39 C    1.018
                            43 C    0.117
    41   7 N    3.560 --    43 C    1.323    40 C    1.146   156 H    0.927
    42   6 C    3.895 --    40 C    1.562    44 N    1.212   122 H    0.928
    43   6 C    3.213 --    44 N    1.673    41 N    1.323    40 C    0.117
    44   7 N    3.046 --    43 C    1.673    42 C    1.212
    45   7 N    3.496 --    37 C    1.322    46 C    0.986   123 H    0.915
                            38 O    0.200
    46   6 C    3.966 --    45 N    0.986    49 C    0.964   124 H    0.948
                            47 C    0.943
    47   6 C    3.949 --    48 O    1.628    53 N    1.291    46 C    0.943
    48   8 O    1.987 --    47 C    1.628    53 N    0.185
    49   6 C    3.982 --   125 H    0.975    46 C    0.964   126 H    0.957
                            50 C    0.936
    50   6 C    3.942 --    51 O    1.512    52 O    1.468    49 C    0.936
    51   8 O    1.840 --    50 C    1.512    52 O    0.218
    52   8 O    1.787 --    50 C    1.468    51 O    0.218
    53   7 N    3.456 --    47 C    1.291    54 C    0.979   127 H    0.924
                            48 O    0.185
    54   6 C    3.957 --    55 C    0.983    53 N    0.979    57 C    0.955
                           128 H    0.937
    55   6 C    3.899 --    56 O    1.894    54 C    0.983   129 H    0.948
    56   8 O    2.045 --    55 C    1.894
    57   6 C    3.986 --    58 C    1.000   130 H    0.976   131 H    0.972
                            54 C    0.955
    58   6 C    3.889 --    57 C    1.000   132 H    0.977   133 H    0.959
                            59 C    0.883
    59   6 C    3.917 --    61 O    1.510    60 O    1.502    58 C    0.883
    60   8 O    1.775 --    59 C    1.502    61 O    0.226
    61   8 O    1.785 --    59 C    1.510    60 O    0.226
    62   7 N    2.988 --    63 C    1.024   134 H    0.956   135 H    0.934
    63   6 C    3.987 --    62 N    1.024   136 H    0.962    66 C    0.961
                            64 C    0.947
    64   6 C    3.946 --    65 O    1.646    73 N    1.284    63 C    0.947
    65   8 O    1.967 --    64 C    1.646    73 N    0.193
    66   6 C    3.989 --    67 C    1.005   137 H    0.974   138 H    0.973
                            63 C    0.961
    67   6 C    3.991 --    68 C    1.007    66 C    1.005   139 H    0.971
                           140 H    0.970
    68   6 C    3.954 --    67 C    1.007    69 N    0.973   142 H    0.961
                           141 H    0.961
    69   7 N    3.477 --    70 C    1.327    68 C    0.973   155 H    0.918
                            72 N    0.106    71 N    0.100
    70   6 C    3.978 --    69 N    1.327    72 N    1.317    71 N    1.307
    71   7 N    3.381 --    70 C    1.307   144 H    0.918   143 H    0.914
                            69 N    0.100
    72   7 N    3.393 --    70 C    1.317   145 H    0.922   146 H    0.915
                            69 N    0.106
    73   7 N    3.460 --    64 C    1.284    74 C    0.986   147 H    0.921
                            65 O    0.193
    74   6 C    3.969 --    75 C    1.003    73 N    0.986   148 H    0.931
                            77 C    0.916
    75   6 C    3.906 --    76 O    1.878    74 C    1.003   149 H    0.950
    76   8 O    2.037 --    75 C    1.878
    77   6 C    3.954 --    79 C    0.997    78 O    0.995   150 H    0.961
                            74 C    0.916
    78   8 O    1.941 --    77 C    0.995   151 H    0.869
    79   6 C    3.990 --    77 C    0.997   152 H    0.984   154 H    0.980
                           153 H    0.978
    80   1 H    0.977 --     1 N    0.963
    81   1 H    0.975 --     1 N    0.954
    82   1 H    0.999 --     2 C    0.949
    83   1 H    0.996 --     3 C    0.948
    84   1 H    0.996 --     5 C    0.974
    85   1 H    0.996 --     5 C    0.972
    86   1 H    0.998 --     6 C    0.967
    87   1 H    0.999 --     7 C    0.988
    88   1 H    0.998 --     7 C    0.984
    89   1 H    0.997 --     7 C    0.980
    90   1 H    0.998 --     8 C    0.986
    91   1 H    0.998 --     8 C    0.986
    92   1 H    0.998 --     8 C    0.986
    93   1 H    0.978 --     9 N    0.964
    94   1 H    0.970 --     9 N    0.946
    95   1 H    0.998 --    10 C    0.943
    96   1 H    0.994 --    11 C    0.949
    97   1 H    0.997 --    13 C    0.973
    98   1 H    0.995 --    13 C    0.972
    99   1 H    0.995 --    14 C    0.953
   100   1 H    0.997 --    14 C    0.966
   101   1 H    0.959 --    17 N    0.940
   102   1 H    0.947 --    17 N    0.906
   103   1 H    0.976 --    18 N    0.962
   104   1 H    0.972 --    18 N    0.958
   105   1 H    0.998 --    19 C    0.959
   106   1 H    0.992 --    22 C    0.961
   107   1 H    0.994 --    22 C    0.966
   108   1 H    0.999 --    25 C    0.970
   109   1 H    0.959 --    28 N    0.928
   110   1 H    0.995 --    29 C    0.958
   111   1 H    0.998 --    32 C    0.969
   112   1 H    0.997 --    33 C    0.986
   113   1 H    0.998 --    33 C    0.977
   114   1 H    0.996 --    33 C    0.984
   115   1 H    0.997 --    34 C    0.987
   116   1 H    0.996 --    34 C    0.984
   117   1 H    0.998 --    34 C    0.985
   118   1 H    0.956 --    35 N    0.922
   119   1 H    0.992 --    36 C    0.940
   120   1 H    0.991 --    39 C    0.958
   121   1 H    0.987 --    39 C    0.940
   122   1 H    0.989 --    42 C    0.928
   123   1 H    0.953 --    45 N    0.915
   124   1 H    0.993 --    46 C    0.948
   125   1 H    0.997 --    49 C    0.975
   126   1 H    0.997 --    49 C    0.957
   127   1 H    0.958 --    53 N    0.924
   128   1 H    0.989 --    54 C    0.937
   129   1 H    0.993 --    55 C    0.948
   130   1 H    0.996 --    57 C    0.976
   131   1 H    0.994 --    57 C    0.972
   132   1 H    0.994 --    58 C    0.977
   133   1 H    0.993 --    58 C    0.959
   134   1 H    0.974 --    62 N    0.956
   135   1 H    0.967 --    62 N    0.934
   136   1 H    0.998 --    63 C    0.962
   137   1 H    0.997 --    66 C    0.974
   138   1 H    0.998 --    66 C    0.973
   139   1 H    0.996 --    67 C    0.971
   140   1 H    0.995 --    67 C    0.970
   141   1 H    0.992 --    68 C    0.961
   142   1 H    0.993 --    68 C    0.961
   143   1 H    0.939 --    71 N    0.914
   144   1 H    0.936 --    71 N    0.918
   145   1 H    0.941 --    72 N    0.922
   146   1 H    0.934 --    72 N    0.915
   147   1 H    0.955 --    73 N    0.921
   148   1 H    0.989 --    74 C    0.931
   149   1 H    0.994 --    75 C    0.950
   150   1 H    0.996 --    77 C    0.961
   151   1 H    0.890 --    78 O    0.869
   152   1 H    0.997 --    79 C    0.984
   153   1 H    0.997 --    79 C    0.978
   154   1 H    0.994 --    79 C    0.980
   155   1 H    0.952 --    69 N    0.918
   156   1 H    0.966 --    41 N    0.927
 ---------------------------------------------------------------------------

Topologies differ in total number of bonds
Writing topology from bond orders to xtbtopo.mol

molecular dipole:
                 x           y           z       tot (Debye)
 q only:      -49.094     -12.153     -86.807
   full:      -49.396     -12.990     -87.875     258.343
molecular quadrupole (traceless):
                xx          xy          yy          xz          yz          zz
 q only:     1133.535   -1129.204    4880.748   -6179.938   -1829.150   -6014.284
  q+dip:     1194.518   -1181.043    4949.873   -6285.564   -1955.003   -6144.390
   full:     1193.891   -1182.589    4948.845   -6285.234   -1954.071   -6142.736


           -------------------------------------------------
          | TOTAL ENERGY             -250.690741494485 Eh   |
          | GRADIENT NORM               0.322903142181 Eh/α |
          | HOMO-LUMO GAP               0.031441757058 eV   |
           -------------------------------------------------
########################################################################
[WARNING] Runtime exception occurred
-3- restart_readRestart: Dimension missmatch in restart file.
-2- restart_readRestart: Multiplicity missmatch in restart file.
-1- restart_readRestart: Number of electron missmatch in restart file.
########################################################################

------------------------------------------------------------------------
 * finished run on 2025/05/05 at 16:52:56.730     
------------------------------------------------------------------------
 total:
 * wall-time:     0 d,  0 h,  0 min,  1.177 sec
 *  cpu-time:     0 d,  0 h,  0 min, 33.369 sec
 * ratio c/w:    28.353 speedup
 SCF:
 * wall-time:     0 d,  0 h,  0 min,  1.163 sec
 *  cpu-time:     0 d,  0 h,  0 min, 33.047 sec
 * ratio c/w:    28.415 speedup

