      -----------------------------------------------------------      
     |                   =====================                   |     
     |                           x T B                           |     
     |                   =====================                   |     
     |                         S. Grimme                         |     
     |          Mulliken Center for Theoretical Chemistry        |     
     |                    University of Bonn                     |     
      -----------------------------------------------------------      

   * xtb version 6.7.1 (edcfbbe) compiled by 'conda@afd1a870197c' on 2025-04-11

   xtb is free software: you can redistribute it and/or modify it under
   the terms of the GNU Lesser General Public License as published by
   the Free Software Foundation, either version 3 of the License, or
   (at your option) any later version.
   
   xtb is distributed in the hope that it will be useful,
   but WITHOUT ANY WARRANTY; without even the implied warranty of
   MERCHANTABILITY or FITNESS FOR A PARTICULAR PURPOSE.  See the
   GNU Lesser General Public License for more details.
   
   Cite this work as:
   * C. Bannwarth, E. Caldeweyher, S. Ehlert, A. Hansen, P. Pracht,
     J. Seibert, S. Spicher, S. Grimme, WIREs Comput. Mol. Sci., 2020, 11,
     e01493. DOI: 10.1002/wcms.1493
   
   for GFN2-xTB:
   * C. Bannwarth, S. Ehlert and S. Grimme., J. Chem. Theory Comput., 2019,
     15, 1652-1671. DOI: 10.1021/acs.jctc.8b01176
   for GFN1-xTB:
   * S. Grimme, C. Bannwarth, P. Shushkov, J. Chem. Theory Comput., 2017,
     13, 1989-2009. DOI: 10.1021/acs.jctc.7b00118
   for GFN0-xTB:
   * P. Pracht, E. Caldeweyher, S. Ehlert, S. Grimme, ChemRxiv, 2019, preprint.
     DOI: 10.26434/chemrxiv.8326202.v1
   for GFN-FF:
   * S. Spicher and S. Grimme, Angew. Chem. Int. Ed., 2020, 59, 15665-15673.
     DOI: 10.1002/anie.202004239
   
   for ALPB and GBSA implicit solvation:
   * S. Ehlert, M. Stahn, S. Spicher, S. Grimme, J. Chem. Theory Comput.,
     2021, 17, 4250-4261. DOI: 10.1021/acs.jctc.1c00471
   
   for ddCOSMO and CPCM-X implicit solvation:
   * M. Stahn, S. Ehlert, S. Grimme, J. Phys. Chem. A,
     2023, XX, XXXX-XXXX. DOI: 10.1021/acs.jpca.3c04382
   
   for DFT-D4:
   * E. Caldeweyher, C. Bannwarth and S. Grimme, J. Chem. Phys., 2017,
     147, 034112. DOI: 10.1063/1.4993215
   * E. Caldeweyher, S. Ehlert, A. Hansen, H. Neugebauer, S. Spicher,
     C. Bannwarth and S. Grimme, J. Chem. Phys., 2019, 150, 154122.
     DOI: 10.1063/1.5090222
   * E. Caldeweyher, J.-M. Mewes, S. Ehlert and S. Grimme, Phys. Chem. Chem. Phys.
     2020, 22, 8499-8512. DOI: 10.1039/D0CP00502A
   
   for sTDA-xTB:
   * S. Grimme and C. Bannwarth, J. Chem. Phys., 2016, 145, 054103.
     DOI: 10.1063/1.4959605
   
   in the mass-spec context:
   * V. Asgeirsson, C. Bauer and S. Grimme, Chem. Sci., 2017, 8, 4879.
     DOI: 10.1039/c7sc00601b
   * J. Koopman and S. Grimme, ACS Omega 2019, 4, 12, 15120-15133.
     DOI: 10.1021/acsomega.9b02011
   
   for metadynamics refer to:
   * S. Grimme, J. Chem. Theory Comput., 2019, 155, 2847-2862
     DOI: 10.1021/acs.jctc.9b00143
   
   for SPH calculations refer to:
   * S. Spicher and S. Grimme, J. Chem. Theory Comput., 2021, 17, 1701-1714
     DOI: 10.1021/acs.jctc.0c01306
   
   for ONIOM refer to:
   * C. Plett, A. Katbashev, S. Ehlert, S. Grimme, M. Bursch,
     Phys. Chem. Chem. Phys., 2023, 25, 17860-17868. DOI: 10.1039/D3CP02178E
   
   for DIPRO refer to:
   * J. Kohn, N. Gildemeister, S. Grimme, D. Fazzi, A. Hansen,
     J. Chem. Phys., 2023, just accepted.
   
   for PTB refer to:
   * S. Grimme, M. Mueller, A. Hansen, J. Chem. Phys., 2023, 158, 124111.
     DOI: 10.1063/5.0137838
   
   with help from (in alphabetical order)
   P. Atkinson, C. Bannwarth, F. Bohle, G. Brandenburg, E. Caldeweyher
   M. Checinski, S. Dohm, S. Ehlert, S. Ehrlich, I. Gerasimov, C. Hölzer
   A. Katbashev, J. Kohn, J. Koopman, C. Lavigne, S. Lehtola, F. März, M. Müller,
   F. Musil, H. Neugebauer, J. Pisarek, C. Plett, P. Pracht, F. Pultar,
   J. Seibert, P. Shushkov, S. Spicher, M. Stahn, M. Steiner, T. Strunk,
   J. Stückrath, T. Rose, and J. Unsleber
   
 * started run on 2025/05/05 at 16:44:04.582     
   ID    Z sym.   atoms
    1    7 N      1, 9, 16, 18-20, 27, 33, 36, 37, 43, 46, 47, 53, 60, 62-64,
                  73, 81, 90, 95
    2    6 C      2, 3, 5, 6, 10, 11, 13-15, 17, 21, 22, 24, 26, 28, 29, 31,
                  32, 34, 35, 38, 39, 41, 42, 44, 45, 48, 49, 51, 54, 55,
                  57-59, 61, 65, 66, 68-70, 74, 75, 77-80, 82, 83, 85-87, 91,
                  92, 94, 96, 97, 99-105
    3    8 O      4, 7, 8, 12, 23, 25, 30, 40, 50, 52, 56, 67, 71, 72, 76,
                  84, 88, 89, 93, 98, 106
    4    1 H      107-240

           -------------------------------------------------
          |                Calculation Setup                |
           -------------------------------------------------

          program call               : xtb /tmp/tmp_fauo3rj/HIE/input.xyz --alpb ether --chrg -2 --input /tmp/tmp_fauo3rj/HIE/constraints.inp --gfn 2
          hostname                   : fedora
          coordinate file            : /tmp/tmp_fauo3rj/HIE/input.xyz
          omp threads                :                    32


molecular fragmentation (1/2 indicates fragments):
111111112222222222222222222222222222222222222222222222222222222222222222
222222222222222222222222222222222222222222222222222211111122222222222222
222222222222222222222222222222222222222222222222222222222222222222222222
222222222222222222222222
# atoms in fragment 1/2:    14   226
 fragment masses (1/2) :      116.10     1419.78
CMA distance (Bohr)    :  17.216
constraining FC (au)   :  0.0500
########################################################################
[WARNING] Please study the warnings concerning your input carefully
-1- readin_getIntValue: could not parse 'S'
########################################################################

           -------------------------------------------------
          |                 G F N 2 - x T B                 |
           -------------------------------------------------

        Reference                      10.1021/acs.jctc.8b01176
      * Hamiltonian:
        H0-scaling (s, p, d)           1.850000    2.230000    2.230000
        zeta-weighting                 0.500000
      * Dispersion:
        s8                             2.700000
        a1                             0.520000
        a2                             5.000000
        s9                             5.000000
      * Repulsion:
        kExp                           1.500000    1.000000
        rExp                           1.000000
      * Coulomb:
        alpha                          2.000000
        third order                    shell-resolved
        anisotropic                    true
        a3                             3.000000
        a5                             4.000000
        cn-shift                       1.200000
        cn-exp                         4.000000
        max-rad                        5.000000

      * Solvation model:               ALPB
        Solvent                        ether
        Parameter file                 internal GFN2-xTB/ALPB
        Dielectric constant                4.3300E+00
        Reference state                gsolv [1 M gas/solution]
        Free energy shift                  4.9534E-03 Eh       3.1083E+00 kcal/mol
        Temperature                        2.9815E+02 K
        Density                            7.1300E-01 kg/L
        Solvent mass                       7.4120E+01 g/mol
        Interaction kernel             P16
        Born radius scaling (c1)           1.5847E+00
        Born radii integrator          GBOBC
        Born offset                        0.0000E+00 a0       0.0000E+00 AA
        H-bond correction              true
        Ion screening                  false
        Surface tension                    1.0000E-05 Eh       1.5569E+01 dyn/cm
        Grid points                               230 per atom

          ...................................................
          :                      SETUP                      :
          :.................................................:
          :  # basis functions                 558          :
          :  # atomic orbitals                 558          :
          :  # shells                          346          :
          :  # electrons                       624          :
          :  max. iterations                   250          :
          :  Hamiltonian                  GFN2-xTB          :
          :  restarted?                      false          :
          :  GBSA solvation                   true          :
          :  PC potential                    false          :
          :  electronic temp.          300.0000000     K    :
          :  accuracy                    1.0000000          :
          :  -> integral cutoff          0.2500000E+02      :
          :  -> integral neglect         0.1000000E-07      :
          :  -> SCF convergence          0.1000000E-05 Eh   :
          :  -> wf. convergence          0.1000000E-03 e    :
          :  Broyden damping             0.4000000          :
          :  net charge                         -2          :
          :  unpaired electrons                  0          :
          ...................................................

 iter      E             dE          RMSdq      gap      omega  full diag
   1   -356.0230175 -0.356023E+03  0.447E+00    0.07       0.0  T
   2   -352.9454112  0.307761E+01  0.386E+00    0.10       1.0  T
   3   -356.4048793 -0.345947E+01  0.250E+00    1.01       1.0  T
   4   -356.7632826 -0.358403E+00  0.187E+00    0.22       1.0  T
   5   -357.2061181 -0.442836E+00  0.143E+00    0.65       1.0  T
   6   -357.3570813 -0.150963E+00  0.147E+00    0.35       1.0  T
   7   -357.6315181 -0.274437E+00  0.899E-01    0.08       1.0  T
   8   -357.5975522  0.339659E-01  0.101E+00    0.27       1.0  T
   9   -357.2519866  0.345566E+00  0.111E+00    0.61       1.0  T
  10   -357.6365074 -0.384521E+00  0.789E-01    0.26       1.0  T
  11   -357.7279087 -0.914013E-01  0.502E-01    0.11       1.0  T
  12   -357.7330233 -0.511462E-02  0.430E-01    0.12       1.0  T
  13   -357.6908841  0.421392E-01  0.485E-01    0.02       1.0  T
  14   -357.6870991  0.378508E-02  0.526E-01    0.18       1.0  T
  15   -357.7463089 -0.592098E-01  0.352E-01    0.11       1.0  T
  16   -357.7542440 -0.793507E-02  0.307E-01    0.10       1.0  T
  17   -357.7773165 -0.230725E-01  0.183E-01    0.02       1.0  T
  18   -357.7902086 -0.128921E-01  0.362E-02    0.05       1.0  T
  19   -357.7885982  0.161037E-02  0.728E-02    0.03       1.0  T
  20   -357.7904324 -0.183416E-02  0.291E-02    0.05       1.0  T
  21   -357.7907572 -0.324792E-03  0.791E-03    0.05       1.0  T
  22   -357.7907821 -0.249544E-04  0.958E-04    0.04       6.7  T
  23   -357.7907818  0.321961E-06  0.118E-03    0.04       5.5  T
  24   -357.7907820 -0.247548E-06  0.814E-04    0.04       7.9  T
  25   -357.7907822 -0.186269E-06  0.444E-04    0.04      14.5  T

   *** convergence criteria satisfied after 25 iterations ***

         #    Occupation            Energy/Eh            Energy/eV
      -------------------------------------------------------------
         1        2.0000           -0.7165201             -19.4975
       ...           ...                  ...                  ...
       306        2.0000           -0.3222045              -8.7676
       307        2.0000           -0.3164101              -8.6100
       308        2.0000           -0.3117676              -8.4836
       309        2.0000           -0.3116265              -8.4798
       310        2.0000           -0.3046685              -8.2905
       311        1.9719           -0.2916488              -7.9362
       312        1.4140           -0.2884481              -7.8491 (HOMO)
       313        0.6141           -0.2868381              -7.8053 (LUMO)
       314        0.0000           -0.2771587              -7.5419
       315        0.0000           -0.2735855              -7.4446
       316                         -0.2582756              -7.0280
       317                         -0.2371055              -6.4520
       ...                                ...                  ...
       558                          2.0500332              55.7842
      -------------------------------------------------------------
                  HL-Gap            0.0016100 Eh            0.0438 eV
             Fermi-level           -0.2876113 Eh           -7.8263 eV

 SCC (total)                   0 d,  0 h,  0 min,  1.261 sec
 SCC setup                      ...        0 min,  0.004 sec (  0.302%)
 Dispersion                     ...        0 min,  0.010 sec (  0.757%)
 classical contributions        ...        0 min,  0.000 sec (  0.033%)
 integral evaluation            ...        0 min,  0.018 sec (  1.399%)
 iterations                     ...        0 min,  1.165 sec ( 92.363%)
 molecular gradient             ...        0 min,  0.062 sec (  4.934%)
 printout                       ...        0 min,  0.003 sec (  0.210%)

         :::::::::::::::::::::::::::::::::::::::::::::::::::::
         ::                     SUMMARY                     ::
         :::::::::::::::::::::::::::::::::::::::::::::::::::::
         :: total energy            -351.892680176698 Eh    ::
         :: total w/o Gsasa/hb      -351.798239685525 Eh    ::
         :: gradient norm              1.275155106174 Eh/a0 ::
         :: HOMO-LUMO gap              0.043810249950 eV    ::
         ::.................................................::
         :: SCC energy              -357.765067156766 Eh    ::
         :: -> isotropic ES            1.323869764415 Eh    ::
         :: -> anisotropic ES          0.047653150187 Eh    ::
         :: -> anisotropic XC          0.208753100347 Eh    ::
         :: -> dispersion             -0.284995534784 Eh    ::
         :: -> Gsolv                  -0.366889150544 Eh    ::
         ::    -> Gelec               -0.272448659371 Eh    ::
         ::    -> Gsasa               -0.080306128826 Eh    ::
         ::    -> Ghb                 -0.019087799923 Eh    ::
         ::    -> Gshift               0.004953437577 Eh    ::
         :: repulsion energy           5.872386980068 Eh    ::
         :: add. restraining           0.000000000000 Eh    ::
         :: total charge              -1.999999999993 e     ::
         :::::::::::::::::::::::::::::::::::::::::::::::::::::

           -------------------------------------------------
          |                Property Printout                |
           -------------------------------------------------

    * Orbital Energies and Occupations

         #    Occupation            Energy/Eh            Energy/eV
      -------------------------------------------------------------
         1        2.0000           -0.7165201             -19.4975
       ...           ...                  ...                  ...
       300        2.0000           -0.3307475              -9.0001
       301        2.0000           -0.3270917              -8.9006
       302        2.0000           -0.3264241              -8.8825
       303        2.0000           -0.3256762              -8.8621
       304        2.0000           -0.3232248              -8.7954
       305        2.0000           -0.3227712              -8.7831
       306        2.0000           -0.3222045              -8.7676
       307        2.0000           -0.3164101              -8.6100
       308        2.0000           -0.3117676              -8.4836
       309        2.0000           -0.3116265              -8.4798
       310        2.0000           -0.3046685              -8.2905
       311        1.9719           -0.2916488              -7.9362
       312        1.4140           -0.2884481              -7.8491 (HOMO)
       313        0.6141           -0.2868381              -7.8053 (LUMO)
       314        0.0000           -0.2771587              -7.5419
       315        0.0000           -0.2735855              -7.4446
       316                         -0.2582756              -7.0280
       317                         -0.2371055              -6.4520
       318                         -0.2155673              -5.8659
       319                         -0.2073537              -5.6424
       320                         -0.1958920              -5.3305
       321                         -0.1903505              -5.1797
       322                         -0.1877629              -5.1093
       323                         -0.1835224              -4.9939
       ...                                ...                  ...
       558                          2.0500332              55.7842
      -------------------------------------------------------------
                  HL-Gap            0.0016100 Eh            0.0438 eV
             Fermi-level           -0.2876113 Eh           -7.8263 eV

     #   Z          covCN         q      C6AA      α(0)
     1   7 N        2.627    -0.367    29.472     8.063
     2   6 C        3.780     0.036    19.993     6.370
     3   6 C        2.760     0.196    23.826     7.993
     4   8 O        0.856    -0.377    21.225     6.177
     5   6 C        3.804    -0.090    22.207     6.709
     6   6 C        2.686     0.362    20.856     7.474
     7   8 O        0.856    -0.612    26.404     6.889
     8   8 O        0.857    -0.625    26.746     6.934
     9   7 N        2.631    -0.364    29.398     8.053
    10   6 C        3.785     0.030    20.088     6.384
    11   6 C        2.767     0.198    23.781     7.986
    12   8 O        0.856    -0.360    20.900     6.129
    13   6 C        3.812    -0.077    21.960     6.670
    14   6 C        3.808    -0.076    21.948     6.669
    15   6 C        3.745    -0.024    21.074     6.549
    16   7 N        2.700    -0.151    24.265     7.316
    17   6 C        2.736     0.243    22.926     7.839
    18   7 N        2.653    -0.223    25.883     7.556
    19   7 N        2.654    -0.251    26.524     7.649
    20   7 N        2.629    -0.384    29.920     8.124
    21   6 C        3.792     0.022    20.214     6.403
    22   6 C        2.763     0.272    22.408     7.752
    23   8 O        0.860    -0.512    24.046     6.575
    24   6 C        3.735     0.119    18.714     6.174
    25   8 O        1.653    -0.483    22.532     6.408
    26   6 C        3.761    -0.136    23.162     6.861
    27   7 N        2.690    -0.174    24.759     7.390
    28   6 C        3.805     0.026    20.133     6.388
    29   6 C        2.756     0.271    22.420     7.754
    30   8 O        0.858    -0.494    23.646     6.520
    31   6 C        3.812    -0.053    21.512     6.602
    32   6 C        3.098     0.039    27.016     8.518
    33   7 N        1.982    -0.358    30.136     8.141
    34   6 C        3.049    -0.003    28.055     8.687
    35   6 C        2.113     0.080    28.844     8.679
    36   7 N        1.981    -0.332    29.426     8.045
    37   7 N        2.691    -0.158    24.417     7.339
    38   6 C        3.796     0.033    20.032     6.373
    39   6 C        2.753     0.283    22.198     7.715
    40   8 O        0.860    -0.496    23.704     6.528
    41   6 C        3.812    -0.067    21.766     6.641
    42   6 C        3.079     0.032    27.205     8.551
    43   7 N        1.985    -0.373    30.533     8.195
    44   6 C        3.071    -0.028    28.614     8.771
    45   6 C        2.119    -0.054    32.258     9.178
    46   7 N        2.824    -0.112    23.445     7.191
    47   7 N        2.686    -0.184    24.981     7.423
    48   6 C        3.792     0.012    20.391     6.431
    49   6 C        2.757     0.270    22.432     7.756
    50   8 O        0.859    -0.503    23.851     6.548
    51   6 C        3.682     0.071    19.600     6.340
    52   8 O        1.655    -0.457    21.981     6.329
    53   7 N        2.688    -0.159    24.449     7.344
    54   6 C        3.798     0.018    20.273     6.411
    55   6 C        2.751     0.273    22.380     7.746
    56   8 O        0.859    -0.493    23.625     6.517
    57   6 C        3.803    -0.080    22.017     6.680
    58   6 C        3.800    -0.079    22.000     6.678
    59   6 C        3.738    -0.020    21.004     6.539
    60   7 N        2.697    -0.149    24.217     7.309
    61   6 C        2.735     0.236    23.058     7.862
    62   7 N        2.655    -0.236    26.183     7.600
    63   7 N        2.653    -0.262    26.806     7.690
    64   7 N        2.687    -0.179    24.869     7.407
    65   6 C        3.794     0.015    20.328     6.420
    66   6 C        2.753     0.270    22.437     7.756
    67   8 O        0.859    -0.485    23.463     6.494
    68   6 C        3.810    -0.045    21.372     6.581
    69   6 C        3.807    -0.082    22.065     6.687
    70   6 C        2.688     0.361    20.879     7.478
    71   8 O        0.856    -0.629    26.844     6.946
    72   8 O        0.856    -0.641    27.144     6.985
    73   7 N        2.691    -0.162    24.499     7.351
    74   6 C        3.794     0.023    20.198     6.400
    75   6 C        2.766     0.206    23.627     7.960
    76   8 O        0.856    -0.356    20.828     6.119
    77   6 C        3.854    -0.015    20.799     6.486
    78   6 C        3.807    -0.061    21.658     6.625
    79   6 C        3.763    -0.123    22.901     6.821
    80   6 C        3.753    -0.113    22.719     6.797
    81   7 N        2.629    -0.363    29.376     8.050
    82   6 C        3.790     0.040    19.914     6.356
    83   6 C        2.759     0.264    22.544     7.775
    84   8 O        0.859    -0.493    23.633     6.518
    85   6 C        3.815    -0.044    21.345     6.576
    86   6 C        3.808    -0.087    22.147     6.699
    87   6 C        2.689     0.354    20.991     7.498
    88   8 O        0.856    -0.645    27.249     6.999
    89   8 O        0.857    -0.638    27.082     6.977
    90   7 N        2.688    -0.174    24.775     7.393
    91   6 C        3.793     0.023    20.202     6.401
    92   6 C        2.752     0.267    22.493     7.766
    93   8 O        0.858    -0.500    23.789     6.539
    94   6 C        3.756    -0.133    23.114     6.855
    95   7 N        2.689    -0.154    24.323     7.325
    96   6 C        3.798     0.033    20.019     6.371
    97   6 C        2.872     0.083    26.156     8.384
    98   8 O        0.856    -0.374    21.159     6.167
    99   6 C        3.816    -0.072    21.863     6.655
   100   6 C        2.971    -0.004    28.120     8.698
   101   6 C        2.934    -0.046    29.148     8.854
   102   6 C        2.931    -0.046    29.154     8.855
   103   6 C        2.922    -0.073    29.810     8.954
   104   6 C        2.919    -0.059    29.459     8.901
   105   6 C        2.852     0.147    24.802     8.162
   106   8 O        1.661    -0.450    21.851     6.310
   107   1 H        0.980    -0.004     3.111     2.756
   108   1 H        0.980    -0.006     3.161     2.778
   109   1 H        0.980     0.017     2.772     2.601
   110   1 H        0.980     0.001     3.029     2.719
   111   1 H        0.980    -0.004     3.115     2.758
   112   1 H        0.980    -0.003     3.106     2.754
   113   1 H        0.980    -0.005     3.131     2.765
   114   1 H        0.980     0.009     2.893     2.658
   115   1 H        0.980     0.008     2.916     2.668
   116   1 H        0.980     0.021     2.705     2.570
   117   1 H        0.980    -0.002     3.083     2.744
   118   1 H        0.980     0.018     2.752     2.592
   119   1 H        0.980    -0.130     6.723     4.052
   120   1 H        0.980    -0.011     3.240     2.813
   121   1 H        0.980     0.019     2.740     2.587
   122   1 H        0.980    -0.005     3.145     2.771
   123   1 H        0.980    -0.008     3.188     2.790
   124   1 H        0.980     0.018     2.754     2.593
   125   1 H        0.860     0.167     1.292     1.781
   126   1 H        0.860     0.150     1.404     1.856
   127   1 H        0.927     0.071     2.073     2.251
   128   1 H        0.929     0.059     2.210     2.325
   129   1 H        0.927     0.033     2.545     2.495
   130   1 H        0.927     0.034     2.530     2.487
   131   1 H        0.860     0.163     1.317     1.798
   132   1 H        0.860     0.166     1.298     1.785
   133   1 H        0.927     0.060     2.193     2.316
   134   1 H        0.929     0.066     2.130     2.282
   135   1 H        0.927     0.050     2.321     2.382
   136   1 H        0.927     0.063     2.168     2.303
   137   1 H        0.927     0.072     2.060     2.244
   138   1 H        0.926     0.063     2.159     2.298
   139   1 H        0.926     0.086     1.913     2.163
   140   1 H        0.927     0.077     2.015     2.220
   141   1 H        0.861     0.235     0.942     1.520
   142   1 H        0.861     0.241     0.917     1.500
   143   1 H        0.861     0.230     0.965     1.539
   144   1 H        0.861     0.238     0.931     1.512
   145   1 H        0.860     0.148     1.413     1.862
   146   1 H        0.860     0.171     1.268     1.764
   147   1 H        0.927     0.030     2.584     2.514
   148   1 H        0.927     0.047     2.356     2.400
   149   1 H        0.804     0.327     0.646     1.263
   150   1 H        0.927     0.062     2.175     2.306
   151   1 H        0.927     0.048     2.346     2.395
   152   1 H        0.927     0.061     2.187     2.312
   153   1 H        0.861     0.218     1.017     1.580
   154   1 H        0.927     0.075     2.035     2.231
   155   1 H        0.927     0.038     2.470     2.458
   156   1 H        0.927     0.061     2.191     2.314
   157   1 H        0.929     0.009     2.904     2.665
   158   1 H        0.861     0.198     1.118     1.656
   159   1 H        0.927     0.079     1.988     2.205
   160   1 H        0.927     0.046     2.375     2.410
   161   1 H        0.927     0.068     2.109     2.271
   162   1 H        0.929     0.005     2.965     2.692
   163   1 H        0.861     0.226     0.983     1.553
   164   1 H        0.927     0.087     1.905     2.158
   165   1 H        0.927     0.050     2.324     2.384
   166   1 H        0.927     0.079     1.993     2.208
   167   1 H        0.804     0.313     0.683     1.299
   168   1 H        0.861     0.217     1.023     1.584
   169   1 H        0.927     0.090     1.876     2.142
   170   1 H        0.927     0.066     2.135     2.285
   171   1 H        0.927     0.069     2.094     2.263
   172   1 H        0.927     0.065     2.141     2.288
   173   1 H        0.927     0.068     2.112     2.272
   174   1 H        0.926     0.087     1.912     2.162
   175   1 H        0.927     0.076     2.020     2.222
   176   1 H        0.861     0.232     0.955     1.531
   177   1 H        0.861     0.247     0.894     1.481
   178   1 H        0.862     0.259     0.850     1.444
   179   1 H        0.861     0.232     0.957     1.532
   180   1 H        0.861     0.211     1.050     1.605
   181   1 H        0.927     0.084     1.935     2.175
   182   1 H        0.927     0.039     2.462     2.454
   183   1 H        0.927     0.048     2.350     2.397
   184   1 H        0.927     0.031     2.568     2.506
   185   1 H        0.927     0.024     2.674     2.557
   186   1 H        0.861     0.216     1.028     1.588
   187   1 H        0.926     0.082     1.956     2.187
   188   1 H        0.929     0.071     2.070     2.250
   189   1 H        0.927     0.051     2.309     2.376
   190   1 H        0.926     0.029     2.600     2.522
   191   1 H        0.927     0.045     2.384     2.415
   192   1 H        0.927     0.049     2.327     2.385
   193   1 H        0.927     0.038     2.480     2.462
   194   1 H        0.926     0.067     2.114     2.273
   195   1 H        0.927     0.040     2.442     2.444
   196   1 H        0.927     0.042     2.428     2.437
   197   1 H        0.927     0.052     2.300     2.372
   198   1 H        0.860     0.151     1.395     1.850
   199   1 H        0.860     0.155     1.367     1.831
   200   1 H        0.927     0.016     2.790     2.612
   201   1 H        0.927     0.034     2.523     2.484
   202   1 H        0.926     0.035     2.515     2.480
   203   1 H        0.927     0.029     2.606     2.524
   204   1 H        0.926     0.029     2.602     2.522
   205   1 H        0.861     0.205     1.079     1.627
   206   1 H        0.926     0.080     1.983     2.202
   207   1 H        0.927     0.068     2.102     2.267
   208   1 H        0.927     0.074     2.037     2.232
   209   1 H        0.927     0.068     2.111     2.272
   210   1 H        0.861     0.216     1.028     1.588
   211   1 H        0.927     0.075     2.026     2.226
   212   1 H        1.888     0.205     1.066     1.612
   213   1 H        0.927     0.066     2.133     2.284
   214   1 H        0.927     0.073     2.054     2.241
   215   1 H        0.929     0.052     2.296     2.369
   216   1 H        0.929     0.053     2.287     2.365
   217   1 H        0.929     0.055     2.253     2.347
   218   1 H        0.929     0.042     2.420     2.433
   219   1 H        0.807     0.348     0.592     1.208
   220   1 H        0.980     0.005     2.961     2.689
   221   1 H        0.980     0.006     2.955     2.686
   222   1 H        0.980    -0.017     3.360     2.865
   223   1 H        0.980     0.000     3.041     2.725
   224   1 H        0.980     0.003     3.003     2.708
   225   1 H        0.980     0.004     2.986     2.700
   226   1 H        0.980     0.004     2.984     2.699
   227   1 H        0.980    -0.008     3.182     2.787
   228   1 H        0.980    -0.008     3.187     2.789
   229   1 H        0.980    -0.023     3.475     2.913
   230   1 H        0.980     0.002     3.020     2.716
   231   1 H        0.980     0.006     2.939     2.679
   232   1 H        2.045     0.167     1.271     1.760
   233   1 H        0.980     0.013     2.838     2.632
   234   1 H        0.980    -0.020     3.421     2.890
   235   1 H        0.980     0.006     2.951     2.684
   236   1 H        0.980     0.011     2.873     2.649
   237   1 H        0.980    -0.018     3.377     2.871
   238   1 H        0.860     0.217     1.022     1.583
   239   1 H        0.860     0.208     1.067     1.618
   240   1 H        0.858     0.152     1.388     1.846

 Mol. C6AA /au·bohr⁶  :     504865.240812
 Mol. C8AA /au·bohr⁸  :   10782520.068534
 Mol. α(0) /au        :       1071.065012


Wiberg/Mayer (AO) data.
largest (>0.10) Wiberg bond orders for each atom

 ---------------------------------------------------------------------------
     #   Z sym  total        # sym  WBO       # sym  WBO       # sym  WBO
 ---------------------------------------------------------------------------
     1   7 N    2.996 --     2 C    1.017   126 H    0.964   125 H    0.956
     2   6 C    3.982 --     1 N    1.017     3 C    0.986   127 H    0.952
                             5 C    0.950
     3   6 C    3.901 --     4 O    1.882     2 C    0.986   128 H    0.950
     4   8 O    2.031 --     3 C    1.882
     5   6 C    3.986 --   130 H    0.969   129 H    0.967     2 C    0.950
                             6 C    0.921
     6   6 C    3.940 --     7 O    1.527     8 O    1.453     5 C    0.921
     7   8 O    1.829 --     6 C    1.527     8 O    0.214
     8   8 O    1.818 --     6 C    1.453     7 O    0.214
     9   7 N    2.998 --    10 C    1.015   132 H    0.957   131 H    0.952
    10   6 C    3.988 --     9 N    1.015    11 C    0.987   133 H    0.953
                            13 C    0.951
    11   6 C    3.900 --    12 O    1.902    10 C    0.987   134 H    0.951
    12   8 O    2.043 --    11 C    1.902
    13   6 C    3.994 --    14 C    1.007   135 H    0.974   136 H    0.973
                            10 C    0.951
    14   6 C    3.993 --    13 C    1.007    15 C    1.007   137 H    0.968
                           138 H    0.966
    15   6 C    3.953 --    14 C    1.007    16 N    0.974   139 H    0.960
                           140 H    0.956
    16   7 N    3.437 --    17 C    1.296    15 C    0.974   238 H    0.920
                            18 N    0.102
    17   6 C    3.975 --    18 N    1.347    19 N    1.307    16 N    1.296
    18   7 N    3.435 --    17 C    1.347   141 H    0.920   142 H    0.910
                            19 N    0.105    16 N    0.102
    19   7 N    3.391 --    17 C    1.307   143 H    0.928   144 H    0.909
                            18 N    0.105
    20   7 N    2.980 --    21 C    1.011   145 H    0.960   146 H    0.946
    21   6 C    3.986 --    20 N    1.011    24 C    0.960   147 H    0.954
                            22 C    0.945
    22   6 C    3.949 --    23 O    1.610    27 N    1.322    21 C    0.945
    23   8 O    1.927 --    22 C    1.610    27 N    0.197
    24   6 C    3.958 --    26 C    1.004    25 O    0.986   148 H    0.962
                            21 C    0.960
    25   8 O    1.935 --    24 C    0.986   149 H    0.877
    26   6 C    3.993 --    24 C    1.004   151 H    0.984   152 H    0.982
                           150 H    0.975
    27   7 N    3.486 --    22 C    1.322    28 C    0.975   153 H    0.885
                            23 O    0.197
    28   6 C    3.965 --    27 N    0.975    31 C    0.960   154 H    0.955
                            29 C    0.941
    29   6 C    3.948 --    30 O    1.621    37 N    1.310    28 C    0.941
    30   8 O    1.928 --    29 C    1.621    37 N    0.197
    31   6 C    3.990 --    32 C    1.004   156 H    0.963   155 H    0.961
                            28 C    0.960
    32   6 C    3.905 --    34 C    1.519    33 N    1.222    31 C    1.004
    33   7 N    2.884 --    35 C    1.467    32 C    1.222    36 N    0.103
    34   6 C    3.886 --    32 C    1.519    36 N    1.203   157 H    0.965
                            35 C    0.103
    35   6 C    3.296 --    36 N    1.611    33 N    1.467    34 C    0.103
    36   7 N    2.993 --    35 C    1.611    34 C    1.203    33 N    0.103
    37   7 N    3.486 --    29 C    1.310    38 C    0.981   158 H    0.926
                            30 O    0.197
    38   6 C    3.966 --    37 N    0.981    41 C    0.967   159 H    0.941
                            39 C    0.939
    39   6 C    3.947 --    40 O    1.614    47 N    1.307    38 C    0.939
    40   8 O    1.958 --    39 C    1.614    47 N    0.186
    41   6 C    3.988 --    42 C    1.014   160 H    0.969    38 C    0.967
                           161 H    0.949
    42   6 C    3.921 --    44 C    1.589    43 N    1.185    41 C    1.014
    43   7 N    2.942 --    45 C    1.570    42 C    1.185
    44   6 C    3.916 --    42 C    1.589    46 N    1.165   162 H    0.972
    45   6 C    2.992 --    43 N    1.570    46 N    1.261
    46   7 N    3.527 --    45 C    1.261    44 C    1.165   240 H    0.943
    47   7 N    3.458 --    39 C    1.307    48 C    0.973   163 H    0.891
                            40 O    0.186
    48   6 C    3.962 --    47 N    0.973    51 C    0.970   164 H    0.946
                            49 C    0.935
    49   6 C    3.953 --    50 O    1.613    53 N    1.326    48 C    0.935
    50   8 O    1.931 --    49 C    1.613    53 N    0.199
    51   6 C    3.955 --    52 O    1.006    48 C    0.970   166 H    0.968
                           165 H    0.962
    52   8 O    1.951 --    51 C    1.006   167 H    0.876
    53   7 N    3.496 --    49 C    1.326    54 C    0.977   168 H    0.914
                            50 O    0.199
    54   6 C    3.961 --    57 C    0.979    53 N    0.977   169 H    0.947
                            55 C    0.931
    55   6 C    3.949 --    56 O    1.629    64 N    1.314    54 C    0.931
    56   8 O    1.945 --    55 C    1.629    64 N    0.198
    57   6 C    3.981 --    58 C    1.001    54 C    0.979   170 H    0.973
                           171 H    0.964
    58   6 C    3.990 --    57 C    1.001    59 C    0.996   172 H    0.980
                           173 H    0.975
    59   6 C    3.957 --    58 C    0.996    60 N    0.982   175 H    0.969
                           174 H    0.955
    60   7 N    3.444 --    61 C    1.288    59 C    0.982   239 H    0.922
    61   6 C    3.976 --    62 N    1.327    63 N    1.326    60 N    1.288
    62   7 N    3.413 --    61 C    1.327   177 H    0.911   176 H    0.909
                            63 N    0.108
    63   7 N    3.397 --    61 C    1.326   179 H    0.927   178 H    0.864
                            62 N    0.108
    64   7 N    3.479 --    55 C    1.314    65 C    0.973   180 H    0.901
                            56 O    0.198
    65   6 C    3.959 --    64 N    0.973    68 C    0.970   181 H    0.955
                            66 C    0.931
    66   6 C    3.951 --    67 O    1.632    73 N    1.308    65 C    0.931
    67   8 O    1.949 --    66 C    1.632    73 N    0.197
    68   6 C    3.992 --    69 C    1.005   182 H    0.976   183 H    0.972
                            65 C    0.970
    69   6 C    3.989 --    68 C    1.005   185 H    0.976   184 H    0.960
                            70 C    0.939
    70   6 C    3.939 --    71 O    1.489    72 O    1.481    69 C    0.939
    71   8 O    1.806 --    70 C    1.489    72 O    0.215
    72   8 O    1.790 --    70 C    1.481    71 O    0.215
    73   7 N    3.482 --    66 C    1.308    74 C    0.978   186 H    0.910
                            67 O    0.197
    74   6 C    3.962 --    75 C    0.979    73 N    0.978   187 H    0.959
                            77 C    0.928
    75   6 C    3.900 --    76 O    1.900    74 C    0.979   188 H    0.948
    76   8 O    2.048 --    75 C    1.900
    77   6 C    3.986 --    79 C    1.010    78 C    0.996   189 H    0.968
                            74 C    0.928
    78   6 C    3.995 --    80 C    1.010    77 C    0.996   190 H    0.979
                           191 H    0.979
    79   6 C    3.994 --    77 C    1.010   192 H    0.986   193 H    0.979
                           194 H    0.971
    80   6 C    3.993 --    78 C    1.010   196 H    0.987   195 H    0.984
                           197 H    0.981
    81   7 N    2.982 --    82 C    1.010   198 H    0.965   199 H    0.956
    82   6 C    3.988 --    81 N    1.010    85 C    0.970   200 H    0.957
                            83 C    0.957
    83   6 C    3.948 --    84 O    1.634    90 N    1.287    82 C    0.957
    84   8 O    1.932 --    83 C    1.634    90 N    0.189
    85   6 C    3.996 --    86 C    1.005   202 H    0.977   201 H    0.973
                            82 C    0.970
    86   6 C    3.991 --    85 C    1.005   204 H    0.970   203 H    0.959
                            87 C    0.939
    87   6 C    3.942 --    88 O    1.490    89 O    1.485    86 C    0.939
    88   8 O    1.782 --    87 C    1.490    89 O    0.217
    89   8 O    1.790 --    87 C    1.485    88 O    0.217
    90   7 N    3.456 --    83 C    1.287    91 C    0.979   205 H    0.929
                            84 O    0.189
    91   6 C    3.965 --    94 C    0.986    90 N    0.979   206 H    0.955
                            92 C    0.936
    92   6 C    3.946 --    93 O    1.610    95 N    1.314    91 C    0.936
    93   8 O    1.948 --    92 C    1.610    95 N    0.191
    94   6 C    3.984 --    91 C    0.986   207 H    0.984   209 H    0.983
                           208 H    0.981
    95   7 N    3.485 --    92 C    1.314    96 C    0.971   210 H    0.923
                            93 O    0.191
    96   6 C    3.963 --    97 C    0.980    95 N    0.971   211 H    0.952
                            99 C    0.942
    97   6 C    3.835 --    98 O    1.886    96 C    0.980   212 H    0.725
                           119 H    0.164
    98   8 O    2.025 --    97 C    1.886
    99   6 C    3.987 --   100 C    1.009   213 H    0.969   214 H    0.969
                            96 C    0.942
   100   6 C    3.987 --   102 C    1.409   101 C    1.405    99 C    1.009
   101   6 C    3.992 --   103 C    1.450   100 C    1.405   215 H    0.970
                           104 C    0.109
   102   6 C    3.990 --   104 C    1.448   100 C    1.409   216 H    0.970
                           103 C    0.106
   103   6 C    3.990 --   101 C    1.450   105 C    1.378   217 H    0.968
                           102 C    0.106
   104   6 C    3.990 --   102 C    1.448   105 C    1.370   218 H    0.972
                           101 C    0.109
   105   6 C    3.934 --   103 C    1.378   104 C    1.370   106 O    1.059
   106   8 O    2.073 --   105 C    1.059   219 H    0.859
   107   1 H    1.000 --   220 H    0.983
   108   1 H    1.000 --   221 H    0.977
   109   1 H    1.000 --   222 H    0.986
   110   1 H    1.000 --   223 H    0.976
   111   1 H    1.000 --   224 H    0.983
   112   1 H    1.000 --   225 H    0.983
   113   1 H    1.000 --   226 H    0.981
   114   1 H    1.000 --   227 H    0.986
   115   1 H    1.000 --   228 H    0.994
   116   1 H    1.000 --   229 H    0.984
   117   1 H    1.000 --   230 H    0.985
   118   1 H    1.000 --   231 H    0.961
   119   1 H    0.983 --   232 H    0.777    97 C    0.164
   120   1 H    1.000 --   233 H    0.985
   121   1 H    1.000 --   234 H    0.961
   122   1 H    1.000 --   235 H    0.962
   123   1 H    1.000 --   236 H    0.945
   124   1 H    1.000 --   237 H    0.949
   125   1 H    0.972 --     1 N    0.956
   126   1 H    0.978 --     1 N    0.964
   127   1 H    0.995 --     2 C    0.952
   128   1 H    0.996 --     3 C    0.950
   129   1 H    0.999 --     5 C    0.967
   130   1 H    0.999 --     5 C    0.969
   131   1 H    0.974 --     9 N    0.952
   132   1 H    0.972 --     9 N    0.957
   133   1 H    0.996 --    10 C    0.953
   134   1 H    0.996 --    11 C    0.951
   135   1 H    0.997 --    13 C    0.974
   136   1 H    0.996 --    13 C    0.973
   137   1 H    0.995 --    14 C    0.968
   138   1 H    0.996 --    14 C    0.966
   139   1 H    0.992 --    15 C    0.960
   140   1 H    0.994 --    15 C    0.956
   141   1 H    0.945 --    18 N    0.920
   142   1 H    0.942 --    18 N    0.910
   143   1 H    0.947 --    19 N    0.928
   144   1 H    0.943 --    19 N    0.909
   145   1 H    0.978 --    20 N    0.960
   146   1 H    0.971 --    20 N    0.946
   147   1 H    0.999 --    21 C    0.954
   148   1 H    0.998 --    24 C    0.962
   149   1 H    0.893 --    25 O    0.877
   150   1 H    0.996 --    26 C    0.975
   151   1 H    0.998 --    26 C    0.984
   152   1 H    0.996 --    26 C    0.982
   153   1 H    0.952 --    27 N    0.885
   154   1 H    0.994 --    28 C    0.955
   155   1 H    0.996 --    31 C    0.961
   156   1 H    0.994 --    31 C    0.963
   157   1 H    0.999 --    34 C    0.965
   158   1 H    0.961 --    37 N    0.926
   159   1 H    0.993 --    38 C    0.941
   160   1 H    0.994 --    41 C    0.969
   161   1 H    0.994 --    41 C    0.949
   162   1 H    0.999 --    44 C    0.972
   163   1 H    0.949 --    47 N    0.891
   164   1 H    0.992 --    48 C    0.946
   165   1 H    0.997 --    51 C    0.962
   166   1 H    0.993 --    51 C    0.968
   167   1 H    0.902 --    52 O    0.876
   168   1 H    0.953 --    53 N    0.914
   169   1 H    0.991 --    54 C    0.947
   170   1 H    0.995 --    57 C    0.973
   171   1 H    0.995 --    57 C    0.964
   172   1 H    0.996 --    58 C    0.980
   173   1 H    0.995 --    58 C    0.975
   174   1 H    0.992 --    59 C    0.955
   175   1 H    0.994 --    59 C    0.969
   176   1 H    0.946 --    62 N    0.909
   177   1 H    0.939 --    62 N    0.911
   178   1 H    0.933 --    63 N    0.864
   179   1 H    0.946 --    63 N    0.927
   180   1 H    0.955 --    64 N    0.901
   181   1 H    0.992 --    65 C    0.955
   182   1 H    0.998 --    68 C    0.976
   183   1 H    0.998 --    68 C    0.972
   184   1 H    0.999 --    69 C    0.960
   185   1 H    0.999 --    69 C    0.976
   186   1 H    0.953 --    73 N    0.910
   187   1 H    0.993 --    74 C    0.959
   188   1 H    0.994 --    75 C    0.948
   189   1 H    0.997 --    77 C    0.968
   190   1 H    0.999 --    78 C    0.979
   191   1 H    0.998 --    78 C    0.979
   192   1 H    0.998 --    79 C    0.986
   193   1 H    0.999 --    79 C    0.979
   194   1 H    0.995 --    79 C    0.971
   195   1 H    0.998 --    80 C    0.984
   196   1 H    0.997 --    80 C    0.987
   197   1 H    0.997 --    80 C    0.981
   198   1 H    0.977 --    81 N    0.965
   199   1 H    0.975 --    81 N    0.956
   200   1 H    1.000 --    82 C    0.957
   201   1 H    0.999 --    85 C    0.973
   202   1 H    0.999 --    85 C    0.977
   203   1 H    0.998 --    86 C    0.959
   204   1 H    0.999 --    86 C    0.970
   205   1 H    0.958 --    90 N    0.929
   206   1 H    0.993 --    91 C    0.955
   207   1 H    0.995 --    94 C    0.984
   208   1 H    0.994 --    94 C    0.981
   209   1 H    0.995 --    94 C    0.983
   210   1 H    0.953 --    95 N    0.923
   211   1 H    0.994 --    96 C    0.952
   212   1 H    0.958 --    97 C    0.725   232 H    0.183
   213   1 H    0.995 --    99 C    0.969
   214   1 H    0.994 --    99 C    0.969
   215   1 H    0.997 --   101 C    0.970
   216   1 H    0.997 --   102 C    0.970
   217   1 H    0.997 --   103 C    0.968
   218   1 H    0.998 --   104 C    0.972
   219   1 H    0.878 --   106 O    0.859
   220   1 H    1.000 --   107 H    0.983
   221   1 H    1.000 --   108 H    0.977
   222   1 H    1.000 --   109 H    0.986
   223   1 H    1.000 --   110 H    0.976
   224   1 H    1.000 --   111 H    0.983
   225   1 H    1.000 --   112 H    0.983
   226   1 H    1.000 --   113 H    0.981
   227   1 H    1.000 --   114 H    0.986
   228   1 H    1.000 --   115 H    0.994
   229   1 H    0.999 --   116 H    0.984
   230   1 H    1.000 --   117 H    0.985
   231   1 H    1.000 --   118 H    0.961
   232   1 H    0.972 --   119 H    0.777   212 H    0.183
   233   1 H    1.000 --   120 H    0.985
   234   1 H    1.000 --   121 H    0.961
   235   1 H    1.000 --   122 H    0.962
   236   1 H    1.000 --   123 H    0.945
   237   1 H    1.000 --   124 H    0.949
   238   1 H    0.953 --    16 N    0.920
   239   1 H    0.957 --    60 N    0.922
   240   1 H    0.976 --    46 N    0.943
 ---------------------------------------------------------------------------

Topologies differ in total number of bonds
Writing topology from bond orders to xtbtopo.mol

molecular dipole:
                 x           y           z       tot (Debye)
 q only:      243.125      91.548      -6.162
   full:      243.933      90.349      -6.999     661.417
molecular quadrupole (traceless):
                xx          xy          yy          xz          yz          zz
 q only:   -27429.513  -16700.046   10576.559    1191.578     327.176   16852.955
  q+dip:   -27654.271  -16566.402   10787.874    1341.583     392.614   16866.397
   full:   -27661.230  -16566.103   10789.563    1342.513     394.119   16871.668


           -------------------------------------------------
          | TOTAL ENERGY             -351.892680176698 Eh   |
          | GRADIENT NORM               1.275155106174 Eh/α |
          | HOMO-LUMO GAP               0.043810249950 eV   |
           -------------------------------------------------
########################################################################
[WARNING] Runtime exception occurred
-3- restart_readRestart: Dimension missmatch in restart file.
-2- restart_readRestart: Multiplicity missmatch in restart file.
-1- restart_readRestart: Number of electron missmatch in restart file.
########################################################################

------------------------------------------------------------------------
 * finished run on 2025/05/05 at 16:44:05.869     
------------------------------------------------------------------------
 total:
 * wall-time:     0 d,  0 h,  0 min,  1.287 sec
 *  cpu-time:     0 d,  0 h,  0 min, 38.358 sec
 * ratio c/w:    29.812 speedup
 SCF:
 * wall-time:     0 d,  0 h,  0 min,  1.263 sec
 *  cpu-time:     0 d,  0 h,  0 min, 37.725 sec
 * ratio c/w:    29.869 speedup

