      -----------------------------------------------------------      
     |                   =====================                   |     
     |                           x T B                           |     
     |                   =====================                   |     
     |                         S. Grimme                         |     
     |          Mulliken Center for Theoretical Chemistry        |     
     |                    University of Bonn                     |     
      -----------------------------------------------------------      

   * xtb version 6.7.1 (edcfbbe) compiled by 'conda@afd1a870197c' on 2025-04-11

   xtb is free software: you can redistribute it and/or modify it under
   the terms of the GNU Lesser General Public License as published by
   the Free Software Foundation, either version 3 of the License, or
   (at your option) any later version.
   
   xtb is distributed in the hope that it will be useful,
   but WITHOUT ANY WARRANTY; without even the implied warranty of
   MERCHANTABILITY or FITNESS FOR A PARTICULAR PURPOSE.  See the
   GNU Lesser General Public License for more details.
   
   Cite this work as:
   * C. Bannwarth, E. Caldeweyher, S. Ehlert, A. Hansen, P. Pracht,
     J. Seibert, S. Spicher, S. Grimme, WIREs Comput. Mol. Sci., 2020, 11,
     e01493. DOI: 10.1002/wcms.1493
   
   for GFN2-xTB:
   * C. Bannwarth, S. Ehlert and S. Grimme., J. Chem. Theory Comput., 2019,
     15, 1652-1671. DOI: 10.1021/acs.jctc.8b01176
   for GFN1-xTB:
   * S. Grimme, C. Bannwarth, P. Shushkov, J. Chem. Theory Comput., 2017,
     13, 1989-2009. DOI: 10.1021/acs.jctc.7b00118
   for GFN0-xTB:
   * P. Pracht, E. Caldeweyher, S. Ehlert, S. Grimme, ChemRxiv, 2019, preprint.
     DOI: 10.26434/chemrxiv.8326202.v1
   for GFN-FF:
   * S. Spicher and S. Grimme, Angew. Chem. Int. Ed., 2020, 59, 15665-15673.
     DOI: 10.1002/anie.202004239
   
   for ALPB and GBSA implicit solvation:
   * S. Ehlert, M. Stahn, S. Spicher, S. Grimme, J. Chem. Theory Comput.,
     2021, 17, 4250-4261. DOI: 10.1021/acs.jctc.1c00471
   
   for ddCOSMO and CPCM-X implicit solvation:
   * M. Stahn, S. Ehlert, S. Grimme, J. Phys. Chem. A,
     2023, XX, XXXX-XXXX. DOI: 10.1021/acs.jpca.3c04382
   
   for DFT-D4:
   * E. Caldeweyher, C. Bannwarth and S. Grimme, J. Chem. Phys., 2017,
     147, 034112. DOI: 10.1063/1.4993215
   * E. Caldeweyher, S. Ehlert, A. Hansen, H. Neugebauer, S. Spicher,
     C. Bannwarth and S. Grimme, J. Chem. Phys., 2019, 150, 154122.
     DOI: 10.1063/1.5090222
   * E. Caldeweyher, J.-M. Mewes, S. Ehlert and S. Grimme, Phys. Chem. Chem. Phys.
     2020, 22, 8499-8512. DOI: 10.1039/D0CP00502A
   
   for sTDA-xTB:
   * S. Grimme and C. Bannwarth, J. Chem. Phys., 2016, 145, 054103.
     DOI: 10.1063/1.4959605
   
   in the mass-spec context:
   * V. Asgeirsson, C. Bauer and S. Grimme, Chem. Sci., 2017, 8, 4879.
     DOI: 10.1039/c7sc00601b
   * J. Koopman and S. Grimme, ACS Omega 2019, 4, 12, 15120-15133.
     DOI: 10.1021/acsomega.9b02011
   
   for metadynamics refer to:
   * S. Grimme, J. Chem. Theory Comput., 2019, 155, 2847-2862
     DOI: 10.1021/acs.jctc.9b00143
   
   for SPH calculations refer to:
   * S. Spicher and S. Grimme, J. Chem. Theory Comput., 2021, 17, 1701-1714
     DOI: 10.1021/acs.jctc.0c01306
   
   for ONIOM refer to:
   * C. Plett, A. Katbashev, S. Ehlert, S. Grimme, M. Bursch,
     Phys. Chem. Chem. Phys., 2023, 25, 17860-17868. DOI: 10.1039/D3CP02178E
   
   for DIPRO refer to:
   * J. Kohn, N. Gildemeister, S. Grimme, D. Fazzi, A. Hansen,
     J. Chem. Phys., 2023, just accepted.
   
   for PTB refer to:
   * S. Grimme, M. Mueller, A. Hansen, J. Chem. Phys., 2023, 158, 124111.
     DOI: 10.1063/5.0137838
   
   with help from (in alphabetical order)
   P. Atkinson, C. Bannwarth, F. Bohle, G. Brandenburg, E. Caldeweyher
   M. Checinski, S. Dohm, S. Ehlert, S. Ehrlich, I. Gerasimov, C. Hölzer
   A. Katbashev, J. Kohn, J. Koopman, C. Lavigne, S. Lehtola, F. März, M. Müller,
   F. Musil, H. Neugebauer, J. Pisarek, C. Plett, P. Pracht, F. Pultar,
   J. Seibert, P. Shushkov, S. Spicher, M. Stahn, M. Steiner, T. Strunk,
   J. Stückrath, T. Rose, and J. Unsleber
   
 * started run on 2025/05/05 at 16:52:56.747     
   ID    Z sym.   atoms
    1    7 N      1, 9, 17, 18, 24, 27, 28, 35, 41, 44, 45, 53, 62, 69, 71-73
    2    6 C      2, 3, 5-8, 10, 11, 13-15, 19, 20, 22, 23, 25, 26, 29, 30,
                  32-34, 36, 37, 39, 40, 42, 43, 46, 47, 49, 50, 54, 55,
                  57-59, 63, 64, 66-68, 70, 74, 75, 77, 79
    3    8 O      4, 12, 16, 21, 31, 38, 48, 51, 52, 56, 60, 61, 65, 76, 78
    4    1 H      80-156

           -------------------------------------------------
          |                Calculation Setup                |
           -------------------------------------------------

          program call               : xtb /tmp/tmp_s_7mfqy/HIE/input.xyz --alpb ether --chrg -1 --input /tmp/tmp_s_7mfqy/HIE/constraints.inp --gfn 2
          hostname                   : fedora
          coordinate file            : /tmp/tmp_s_7mfqy/HIE/input.xyz
          omp threads                :                    32


molecular fragmentation (1/2 indicates fragments):
111111112222222222222222222222222222222222222222222222222222222222222222
222222211111111111112222222222222222222222222222222222222222222222222222
222222222222
# atoms in fragment 1/2:    21   135
 fragment masses (1/2) :      115.17     1005.05
CMA distance (Bohr)    :  11.091
constraining FC (au)   :  0.0500
########################################################################
[WARNING] Please study the warnings concerning your input carefully
-1- readin_getIntValue: could not parse 'S'
########################################################################

           -------------------------------------------------
          |                 G F N 2 - x T B                 |
           -------------------------------------------------

        Reference                      10.1021/acs.jctc.8b01176
      * Hamiltonian:
        H0-scaling (s, p, d)           1.850000    2.230000    2.230000
        zeta-weighting                 0.500000
      * Dispersion:
        s8                             2.700000
        a1                             0.520000
        a2                             5.000000
        s9                             5.000000
      * Repulsion:
        kExp                           1.500000    1.000000
        rExp                           1.000000
      * Coulomb:
        alpha                          2.000000
        third order                    shell-resolved
        anisotropic                    true
        a3                             3.000000
        a5                             4.000000
        cn-shift                       1.200000
        cn-exp                         4.000000
        max-rad                        5.000000

      * Solvation model:               ALPB
        Solvent                        ether
        Parameter file                 internal GFN2-xTB/ALPB
        Dielectric constant                4.3300E+00
        Reference state                gsolv [1 M gas/solution]
        Free energy shift                  4.9534E-03 Eh       3.1083E+00 kcal/mol
        Temperature                        2.9815E+02 K
        Density                            7.1300E-01 kg/L
        Solvent mass                       7.4120E+01 g/mol
        Interaction kernel             P16
        Born radius scaling (c1)           1.5847E+00
        Born radii integrator          GBOBC
        Born offset                        0.0000E+00 a0       0.0000E+00 AA
        H-bond correction              true
        Ion screening                  false
        Surface tension                    1.0000E-05 Eh       1.5569E+01 dyn/cm
        Grid points                               230 per atom

          ...................................................
          :                      SETUP                      :
          :.................................................:
          :  # basis functions                 393          :
          :  # atomic orbitals                 393          :
          :  # shells                          235          :
          :  # electrons                       441          :
          :  max. iterations                   250          :
          :  Hamiltonian                  GFN2-xTB          :
          :  restarted?                      false          :
          :  GBSA solvation                   true          :
          :  PC potential                    false          :
          :  electronic temp.          300.0000000     K    :
          :  accuracy                    1.0000000          :
          :  -> integral cutoff          0.2500000E+02      :
          :  -> integral neglect         0.1000000E-07      :
          :  -> SCF convergence          0.1000000E-05 Eh   :
          :  -> wf. convergence          0.1000000E-03 e    :
          :  Broyden damping             0.4000000          :
          :  net charge                         -1          :
          :  unpaired electrons                  0          :
          ...................................................

 iter      E             dE          RMSdq      gap      omega  full diag
   1   -251.3576041 -0.251358E+03  0.487E+00    0.06       0.0  T
   2   -246.0614737  0.529613E+01  0.510E+00    0.05       1.0  T
   3   -252.1773687 -0.611589E+01  0.295E+00    0.07       1.0  T
   4   -252.7968734 -0.619505E+00  0.221E+00    0.28       1.0  T
   5   -253.5077083 -0.710835E+00  0.179E+00    0.56       1.0  T
   6   -253.4400906  0.676177E-01  0.152E+00    0.14       1.0  T
   7   -253.2223416  0.217749E+00  0.158E+00    0.83       1.0  T
   8   -253.4835486 -0.261207E+00  0.114E+00    0.23       1.0  T
   9   -253.4142114  0.693372E-01  0.125E+00    0.48       1.0  T
  10   -253.5947910 -0.180580E+00  0.101E+00    0.31       1.0  T
  11   -253.6431700 -0.483790E-01  0.884E-01    0.36       1.0  T
  12   -253.6474927 -0.432269E-02  0.860E-01    0.38       1.0  T
  13   -253.4804691  0.167024E+00  0.103E+00    0.02       1.0  T
  14   -253.5269567 -0.464876E-01  0.890E-01    0.23       1.0  T
  15   -253.7347344 -0.207778E+00  0.354E-01    0.06       1.0  T
  16   -253.7241342  0.106003E-01  0.335E-01    0.00       1.0  T
  17   -253.7468934 -0.227593E-01  0.172E-01    0.06       1.0  T
  18   -253.7504659 -0.357250E-02  0.880E-02    0.03       1.0  T
  19   -253.7448475  0.561840E-02  0.172E-01    0.01       1.0  T
  20   -253.7435641  0.128346E-02  0.177E-01    0.06       1.0  T
  21   -253.7518360 -0.827192E-02  0.525E-02    0.04       1.0  T
  22   -253.7520695 -0.233553E-03  0.413E-02    0.03       1.0  T
  23   -253.7522401 -0.170520E-03  0.336E-02    0.04       1.0  T
  24   -253.7525311 -0.290999E-03  0.883E-03    0.03       1.0  T
  25   -253.7525445 -0.134025E-04  0.419E-03    0.03       1.9  T
  26   -253.7525483 -0.380746E-05  0.181E-03    0.03       4.4  T
  27   -253.7525471  0.112307E-05  0.237E-03    0.04       3.4  T
  28   -253.7525476 -0.458504E-06  0.205E-03    0.03       3.9  T
  29   -253.7525481 -0.484088E-06  0.148E-03    0.03       5.4  T
  30   -253.7525487 -0.566898E-06  0.204E-04    0.03      39.2  T
  31   -253.7525487 -0.106089E-07  0.255E-05    0.03     313.5  T

   *** convergence criteria satisfied after 31 iterations ***

         #    Occupation            Energy/Eh            Energy/eV
      -------------------------------------------------------------
         1        2.0000           -0.7445832             -20.2611
       ...           ...                  ...                  ...
       215        2.0000           -0.3458808              -9.4119
       216        2.0000           -0.3448532              -9.3839
       217        1.9986           -0.3395381              -9.2393
       218        1.9759           -0.3368231              -9.1654
       219        1.8805           -0.3352303              -9.1221
       220        1.7662           -0.3344977              -9.1021
       221        0.9356           -0.3321086              -9.0371 (HOMO)
       222        0.4433           -0.3308255              -9.0022 (LUMO)
       223                         -0.2733915              -7.4394
       224                         -0.2673105              -7.2739
       225                         -0.2552450              -6.9456
       226                         -0.2550352              -6.9399
       ...                                ...                  ...
       393                          0.7151218              19.4595
      -------------------------------------------------------------
                  HL-Gap            0.0012831 Eh            0.0349 eV
             Fermi-level           -0.3322615 Eh           -9.0413 eV

 SCC (total)                   0 d,  0 h,  0 min,  0.696 sec
 SCC setup                      ...        0 min,  0.002 sec (  0.251%)
 Dispersion                     ...        0 min,  0.004 sec (  0.517%)
 classical contributions        ...        0 min,  0.000 sec (  0.017%)
 integral evaluation            ...        0 min,  0.007 sec (  1.075%)
 iterations                     ...        0 min,  0.658 sec ( 94.581%)
 molecular gradient             ...        0 min,  0.021 sec (  3.040%)
 printout                       ...        0 min,  0.004 sec (  0.514%)

         :::::::::::::::::::::::::::::::::::::::::::::::::::::
         ::                     SUMMARY                     ::
         :::::::::::::::::::::::::::::::::::::::::::::::::::::
         :: total energy            -250.682576877562 Eh    ::
         :: total w/o Gsasa/hb      -250.612390201802 Eh    ::
         :: gradient norm              0.321312760884 Eh/a0 ::
         :: HOMO-LUMO gap              0.034914588019 eV    ::
         ::.................................................::
         :: SCC energy              -253.740020144854 Eh    ::
         :: -> isotropic ES            0.888484022375 Eh    ::
         :: -> anisotropic ES          0.004111101349 Eh    ::
         :: -> anisotropic XC          0.086806340456 Eh    ::
         :: -> dispersion             -0.188272230131 Eh    ::
         :: -> Gsolv                  -0.242230499543 Eh    ::
         ::    -> Gelec               -0.172043823783 Eh    ::
         ::    -> Gsasa               -0.057791780662 Eh    ::
         ::    -> Ghb                 -0.017348332675 Eh    ::
         ::    -> Gshift               0.004953437577 Eh    ::
         :: repulsion energy           3.057443267292 Eh    ::
         :: add. restraining           0.000000000000 Eh    ::
         :: total charge              -0.999999999999 e     ::
         :::::::::::::::::::::::::::::::::::::::::::::::::::::

           -------------------------------------------------
          |                Property Printout                |
           -------------------------------------------------

    * Orbital Energies and Occupations

         #    Occupation            Energy/Eh            Energy/eV
      -------------------------------------------------------------
         1        2.0000           -0.7445832             -20.2611
       ...           ...                  ...                  ...
       209        2.0000           -0.3520883              -9.5808
       210        2.0000           -0.3518968              -9.5756
       211        2.0000           -0.3517030              -9.5703
       212        2.0000           -0.3513709              -9.5613
       213        2.0000           -0.3483560              -9.4792
       214        2.0000           -0.3464643              -9.4278
       215        2.0000           -0.3458808              -9.4119
       216        2.0000           -0.3448532              -9.3839
       217        1.9986           -0.3395381              -9.2393
       218        1.9759           -0.3368231              -9.1654
       219        1.8805           -0.3352303              -9.1221
       220        1.7662           -0.3344977              -9.1021
       221        0.9356           -0.3321086              -9.0371 (HOMO)
       222        0.4433           -0.3308255              -9.0022 (LUMO)
       223                         -0.2733915              -7.4394
       224                         -0.2673105              -7.2739
       225                         -0.2552450              -6.9456
       226                         -0.2550352              -6.9399
       227                         -0.2320564              -6.3146
       228                         -0.1992900              -5.4230
       229                         -0.1989156              -5.4128
       230                         -0.1966178              -5.3502
       231                         -0.1927791              -5.2458
       232                         -0.1922944              -5.2326
       ...                                ...                  ...
       393                          0.7151218              19.4595
      -------------------------------------------------------------
                  HL-Gap            0.0012831 Eh            0.0349 eV
             Fermi-level           -0.3322615 Eh           -9.0413 eV

     #   Z          covCN         q      C6AA      α(0)
     1   7 N        2.632    -0.360    29.290     8.038
     2   6 C        3.784     0.042    19.891     6.353
     3   6 C        2.770     0.197    23.792     7.989
     4   8 O        0.856    -0.366    21.010     6.145
     5   6 C        3.819    -0.075    21.924     6.664
     6   6 C        3.847    -0.014    20.786     6.485
     7   6 C        3.757    -0.114    22.725     6.797
     8   6 C        3.758    -0.118    22.816     6.810
     9   7 N        2.630    -0.369    29.536     8.072
    10   6 C        3.784     0.041    19.905     6.355
    11   6 C        2.764     0.198    23.774     7.985
    12   8 O        0.856    -0.375    21.181     6.170
    13   6 C        3.806    -0.056    21.573     6.612
    14   6 C        3.807    -0.099    22.379     6.734
    15   6 C        2.742     0.280    22.267     7.726
    16   8 O        0.858    -0.490    23.574     6.510
    17   7 N        2.638    -0.276    27.147     7.738
    18   7 N        2.631    -0.355    29.153     8.019
    19   6 C        3.789     0.040    19.922     6.357
    20   6 C        2.753     0.268    22.482     7.764
    21   8 O        0.858    -0.479    23.335     6.477
    22   6 C        3.810    -0.073    21.883     6.659
    23   6 C        3.077     0.050    26.795     8.487
    24   7 N        1.984    -0.278    28.010     7.849
    25   6 C        3.053     0.001    27.944     8.669
    26   6 C        2.100     0.120    27.949     8.542
    27   7 N        1.971    -0.294    28.424     7.906
    28   7 N        2.687    -0.173    24.753     7.389
    29   6 C        3.792     0.015    20.332     6.421
    30   6 C        2.758     0.277    22.320     7.737
    31   8 O        0.860    -0.490    23.561     6.508
    32   6 C        3.850    -0.018    20.862     6.497
    33   6 C        3.758    -0.123    22.911     6.824
    34   6 C        3.758    -0.125    22.948     6.830
    35   7 N        2.691    -0.154    24.339     7.327
    36   6 C        3.803     0.028    20.102     6.383
    37   6 C        2.757     0.267    22.498     7.767
    38   8 O        0.859    -0.499    23.757     6.535
    39   6 C        3.812    -0.082    22.059     6.685
    40   6 C        3.091     0.057    26.624     8.457
    41   7 N        1.988    -0.258    27.521     7.780
    42   6 C        3.056    -0.045    29.050     8.839
    43   6 C        2.108     0.022    30.284     8.892
    44   7 N        2.840    -0.075    22.697     7.076
    45   7 N        2.691    -0.154    24.336     7.327
    46   6 C        3.796     0.025    20.152     6.392
    47   6 C        2.761     0.276    22.327     7.738
    48   8 O        0.859    -0.473    23.191     6.457
    49   6 C        3.807    -0.104    22.473     6.748
    50   6 C        2.688     0.363    20.842     7.471
    51   8 O        0.857    -0.612    26.411     6.890
    52   8 O        0.856    -0.635    27.001     6.967
    53   7 N        2.688    -0.172    24.724     7.385
    54   6 C        3.798     0.031    20.062     6.378
    55   6 C        2.765     0.210    23.544     7.946
    56   8 O        0.856    -0.356    20.830     6.119
    57   6 C        3.810    -0.058    21.609     6.617
    58   6 C        3.805    -0.083    22.088     6.691
    59   6 C        2.687     0.371    20.715     7.448
    60   8 O        0.856    -0.577    25.564     6.779
    61   8 O        0.857    -0.568    25.337     6.749
    62   7 N        2.630    -0.360    29.291     8.038
    63   6 C        3.789     0.028    20.107     6.386
    64   6 C        2.759     0.268    22.475     7.763
    65   8 O        0.858    -0.480    23.339     6.477
    66   6 C        3.817    -0.075    21.917     6.663
    67   6 C        3.807    -0.076    21.952     6.670
    68   6 C        3.747    -0.027    21.119     6.555
    69   7 N        2.702    -0.137    23.977     7.272
    70   6 C        2.738     0.237    23.033     7.858
    71   7 N        2.658    -0.263    26.811     7.690
    72   7 N        2.657    -0.259    26.719     7.677
    73   7 N        2.692    -0.168    24.641     7.372
    74   6 C        3.793     0.016    20.315     6.418
    75   6 C        2.774     0.206    23.634     7.962
    76   8 O        0.856    -0.362    20.930     6.134
    77   6 C        3.731     0.116    18.778     6.186
    78   8 O        1.654    -0.478    22.429     6.393
    79   6 C        3.757    -0.129    23.039     6.844
    80   1 H        0.860     0.150     1.401     1.854
    81   1 H        0.860     0.157     1.354     1.823
    82   1 H        0.927     0.030     2.580     2.512
    83   1 H        0.929     0.061     2.191     2.315
    84   1 H        0.927     0.060     2.195     2.317
    85   1 H        0.927     0.065     2.139     2.287
    86   1 H        0.927     0.041     2.431     2.438
    87   1 H        0.927     0.035     2.515     2.480
    88   1 H        0.927     0.048     2.350     2.397
    89   1 H        0.927     0.037     2.487     2.466
    90   1 H        0.927     0.040     2.448     2.447
    91   1 H        0.927     0.035     2.523     2.484
    92   1 H        0.927     0.039     2.459     2.452
    93   1 H        0.860     0.148     1.412     1.861
    94   1 H        0.860     0.173     1.256     1.755
    95   1 H        0.927     0.048     2.346     2.395
    96   1 H        0.929     0.076     2.022     2.224
    97   1 H        0.927     0.056     2.245     2.343
    98   1 H        0.926     0.071     2.071     2.251
    99   1 H        0.927     0.073     2.047     2.238
   100   1 H        0.927     0.057     2.231     2.336
   101   1 H        0.861     0.202     1.094     1.638
   102   1 H        0.861     0.228     0.972     1.545
   103   1 H        0.860     0.155     1.367     1.832
   104   1 H        0.860     0.166     1.300     1.786
   105   1 H        0.927     0.014     2.828     2.630
   106   1 H        0.927     0.079     1.988     2.205
   107   1 H        0.926     0.057     2.231     2.336
   108   1 H        0.929     0.037     2.486     2.466
   109   1 H        0.861     0.201     1.103     1.645
   110   1 H        0.927     0.069     2.093     2.262
   111   1 H        0.927     0.047     2.353     2.399
   112   1 H        0.927     0.051     2.308     2.376
   113   1 H        0.927     0.039     2.463     2.454
   114   1 H        0.927     0.059     2.214     2.327
   115   1 H        0.927     0.050     2.320     2.382
   116   1 H        0.926     0.057     2.233     2.337
   117   1 H        0.927     0.045     2.388     2.417
   118   1 H        0.861     0.208     1.067     1.618
   119   1 H        0.927     0.082     1.962     2.190
   120   1 H        0.927     0.089     1.889     2.149
   121   1 H        0.927     0.089     1.889     2.149
   122   1 H        0.929     0.097     1.808     2.102
   123   1 H        0.861     0.215     1.030     1.590
   124   1 H        0.927     0.082     1.958     2.188
   125   1 H        0.927     0.047     2.355     2.400
   126   1 H        0.927     0.046     2.369     2.407
   127   1 H        0.861     0.204     1.085     1.632
   128   1 H        0.927     0.099     1.798     2.097
   129   1 H        0.929     0.077     2.008     2.216
   130   1 H        0.927     0.060     2.197     2.318
   131   1 H        0.927     0.064     2.157     2.296
   132   1 H        0.927     0.057     2.237     2.339
   133   1 H        0.927     0.056     2.245     2.343
   134   1 H        0.860     0.154     1.374     1.836
   135   1 H        0.860     0.177     1.233     1.740
   136   1 H        0.927     0.042     2.429     2.437
   137   1 H        0.927     0.051     2.312     2.378
   138   1 H        0.927     0.048     2.346     2.395
   139   1 H        0.927     0.065     2.145     2.290
   140   1 H        0.927     0.066     2.126     2.280
   141   1 H        0.927     0.086     1.915     2.164
   142   1 H        0.927     0.085     1.924     2.169
   143   1 H        0.861     0.247     0.894     1.481
   144   1 H        0.861     0.252     0.876     1.466
   145   1 H        0.861     0.243     0.909     1.494
   146   1 H        0.861     0.257     0.857     1.450
   147   1 H        0.861     0.213     1.043     1.600
   148   1 H        0.927     0.107     1.722     2.052
   149   1 H        0.929     0.075     2.028     2.227
   150   1 H        0.926     0.064     2.148     2.292
   151   1 H        0.804     0.332     0.633     1.249
   152   1 H        0.926     0.056     2.249     2.345
   153   1 H        0.927     0.055     2.257     2.349
   154   1 H        0.927     0.064     2.154     2.295
   155   1 H        0.860     0.219     1.013     1.577
   156   1 H        0.858     0.204     1.087     1.633

 Mol. C6AA /au·bohr⁶  :     236667.720911
 Mol. C8AA /au·bohr⁸  :    5263964.609907
 Mol. α(0) /au        :        728.264298


Wiberg/Mayer (AO) data.
largest (>0.10) Wiberg bond orders for each atom

 ---------------------------------------------------------------------------
     #   Z sym  total        # sym  WBO       # sym  WBO       # sym  WBO
 ---------------------------------------------------------------------------
     1   7 N    2.993 --     2 C    1.019    80 H    0.963    81 H    0.954
     2   6 C    3.990 --     1 N    1.019     3 C    0.989     5 C    0.953
                            82 H    0.949
     3   6 C    3.905 --     4 O    1.887     2 C    0.989    83 H    0.948
     4   8 O    2.040 --     3 C    1.887
     5   6 C    3.986 --     6 C    0.992    84 H    0.974    85 H    0.972
                             2 C    0.953
     6   6 C    3.995 --     8 C    1.006     7 C    1.001     5 C    0.992
                            86 H    0.967
     7   6 C    3.993 --     6 C    1.001    87 H    0.988    88 H    0.983
                            89 H    0.980
     8   6 C    3.997 --     6 C    1.006    90 H    0.986    91 H    0.986
                            92 H    0.986
     9   7 N    2.997 --    10 C    1.015    93 H    0.964    94 H    0.946
    10   6 C    3.989 --     9 N    1.015    11 C    0.988    13 C    0.964
                            95 H    0.943
    11   6 C    3.893 --    12 O    1.891    10 C    0.988    96 H    0.949
    12   8 O    2.033 --    11 C    1.891
    13   6 C    3.990 --    14 C    0.997    97 H    0.973    98 H    0.971
                            10 C    0.964
    14   6 C    3.996 --    13 C    0.997    15 C    0.970   100 H    0.965
                            99 H    0.953
    15   6 C    3.945 --    16 O    1.635    17 N    1.313    14 C    0.970
    16   8 O    1.947 --    15 C    1.635    17 N    0.198
    17   7 N    3.408 --    15 C    1.313   101 H    0.940   102 H    0.906
                            16 O    0.198
    18   7 N    3.002 --    19 C    1.017   103 H    0.962   104 H    0.957
    19   6 C    3.990 --    18 N    1.017    22 C    0.961   105 H    0.958
                            20 C    0.944
    20   6 C    3.947 --    21 O    1.658    28 N    1.283    19 C    0.944
    21   8 O    1.964 --    20 C    1.658    28 N    0.197
    22   6 C    3.993 --    23 C    1.014   107 H    0.965    19 C    0.961
                           106 H    0.960
    23   6 C    3.899 --    25 C    1.510    24 N    1.193    22 C    1.014
                            26 C    0.114
    24   7 N    2.988 --    26 C    1.597    23 C    1.193    27 N    0.109
    25   6 C    3.903 --    23 C    1.510    27 N    1.219   108 H    0.969
                            26 C    0.115
    26   6 C    3.421 --    24 N    1.597    27 N    1.547    25 C    0.115
                            23 C    0.114
    27   7 N    2.950 --    26 C    1.547    25 C    1.219    24 N    0.109
    28   7 N    3.457 --    20 C    1.283    29 C    0.976   109 H    0.929
                            21 O    0.197
    29   6 C    3.963 --    28 N    0.976    32 C    0.963   110 H    0.959
                            30 C    0.931
    30   6 C    3.949 --    31 O    1.631    35 N    1.313    29 C    0.931
    31   8 O    1.945 --    30 C    1.631    35 N    0.197
    32   6 C    3.989 --    34 C    1.006    33 C    1.006   111 H    0.969
                            29 C    0.963
    33   6 C    3.993 --    32 C    1.006   112 H    0.986   114 H    0.984
                           113 H    0.977
    34   6 C    3.993 --    32 C    1.006   115 H    0.987   117 H    0.985
                           116 H    0.984
    35   7 N    3.486 --    30 C    1.313    36 C    0.981   118 H    0.923
                            31 O    0.197
    36   6 C    3.970 --    35 N    0.981    39 C    0.959    37 C    0.953
                           119 H    0.939
    37   6 C    3.952 --    38 O    1.615    45 N    1.318    36 C    0.953
    38   8 O    1.933 --    37 C    1.615    45 N    0.198
    39   6 C    3.984 --    40 C    1.018    36 C    0.959   120 H    0.958
                           121 H    0.940
    40   6 C    3.906 --    42 C    1.566    41 N    1.186    39 C    1.018
    41   7 N    3.064 --    43 C    1.704    40 C    1.186
    42   6 C    3.898 --    40 C    1.566    44 N    1.170   122 H    0.931
                            43 C    0.122
    43   6 C    3.230 --    41 N    1.704    44 N    1.315    42 C    0.122
    44   7 N    3.552 --    43 C    1.315    42 C    1.170   156 H    0.925
    45   7 N    3.492 --    37 C    1.318    46 C    0.987   123 H    0.915
                            38 O    0.198
    46   6 C    3.967 --    45 N    0.987    49 C    0.963   124 H    0.947
                            47 C    0.944
    47   6 C    3.949 --    48 O    1.623    53 N    1.293    46 C    0.944
    48   8 O    1.980 --    47 C    1.623    53 N    0.185
    49   6 C    3.983 --   125 H    0.976    46 C    0.963   126 H    0.957
                            50 C    0.936
    50   6 C    3.943 --    51 O    1.512    52 O    1.468    49 C    0.936
    51   8 O    1.840 --    50 C    1.512    52 O    0.218
    52   8 O    1.788 --    50 C    1.468    51 O    0.218
    53   7 N    3.457 --    47 C    1.293    54 C    0.978   127 H    0.924
                            48 O    0.185
    54   6 C    3.959 --    55 C    0.983    53 N    0.978    57 C    0.955
                           128 H    0.939
    55   6 C    3.900 --    56 O    1.894    54 C    0.983   129 H    0.948
    56   8 O    2.045 --    55 C    1.894
    57   6 C    3.986 --    58 C    1.000   130 H    0.976   131 H    0.972
                            54 C    0.955
    58   6 C    3.903 --    57 C    1.000   132 H    0.978   133 H    0.960
                            59 C    0.890
    59   6 C    3.921 --    61 O    1.509    60 O    1.501    58 C    0.890
    60   8 O    1.775 --    59 C    1.501    61 O    0.224
    61   8 O    1.784 --    59 C    1.509    60 O    0.224
    62   7 N    2.991 --    63 C    1.024   134 H    0.957   135 H    0.935
    63   6 C    3.988 --    62 N    1.024   136 H    0.962    66 C    0.961
                            64 C    0.948
    64   6 C    3.946 --    65 O    1.646    73 N    1.284    63 C    0.948
    65   8 O    1.966 --    64 C    1.646    73 N    0.192
    66   6 C    3.992 --    67 C    1.005   137 H    0.974   138 H    0.973
                            63 C    0.961
    67   6 C    3.991 --    68 C    1.007    66 C    1.005   139 H    0.971
                           140 H    0.970
    68   6 C    3.954 --    67 C    1.007    69 N    0.973   142 H    0.961
                           141 H    0.961
    69   7 N    3.477 --    70 C    1.327    68 C    0.973   155 H    0.918
                            72 N    0.106    71 N    0.100
    70   6 C    3.978 --    69 N    1.327    72 N    1.317    71 N    1.306
    71   7 N    3.381 --    70 C    1.306   144 H    0.918   143 H    0.914
                            69 N    0.100
    72   7 N    3.393 --    70 C    1.317   145 H    0.922   146 H    0.915
                            69 N    0.106
    73   7 N    3.460 --    64 C    1.284    74 C    0.986   147 H    0.921
                            65 O    0.192
    74   6 C    3.969 --    75 C    1.003    73 N    0.986   148 H    0.931
                            77 C    0.917
    75   6 C    3.906 --    76 O    1.879    74 C    1.003   149 H    0.950
    76   8 O    2.037 --    75 C    1.879
    77   6 C    3.953 --    79 C    0.997    78 O    0.995   150 H    0.961
                            74 C    0.917
    78   8 O    1.941 --    77 C    0.995   151 H    0.870
    79   6 C    3.991 --    77 C    0.997   152 H    0.984   154 H    0.981
                           153 H    0.979
    80   1 H    0.977 --     1 N    0.963
    81   1 H    0.975 --     1 N    0.954
    82   1 H    0.999 --     2 C    0.949
    83   1 H    0.996 --     3 C    0.948
    84   1 H    0.996 --     5 C    0.974
    85   1 H    0.996 --     5 C    0.972
    86   1 H    0.998 --     6 C    0.967
    87   1 H    0.999 --     7 C    0.988
    88   1 H    0.998 --     7 C    0.983
    89   1 H    0.997 --     7 C    0.980
    90   1 H    0.998 --     8 C    0.986
    91   1 H    0.998 --     8 C    0.986
    92   1 H    0.998 --     8 C    0.986
    93   1 H    0.978 --     9 N    0.964
    94   1 H    0.970 --     9 N    0.946
    95   1 H    0.998 --    10 C    0.943
    96   1 H    0.994 --    11 C    0.949
    97   1 H    0.997 --    13 C    0.973
    98   1 H    0.995 --    13 C    0.971
    99   1 H    0.995 --    14 C    0.953
   100   1 H    0.997 --    14 C    0.965
   101   1 H    0.959 --    17 N    0.940
   102   1 H    0.948 --    17 N    0.906
   103   1 H    0.976 --    18 N    0.962
   104   1 H    0.972 --    18 N    0.957
   105   1 H    0.996 --    19 C    0.958
   106   1 H    0.992 --    22 C    0.960
   107   1 H    0.994 --    22 C    0.965
   108   1 H    0.998 --    25 C    0.969
   109   1 H    0.960 --    28 N    0.929
   110   1 H    0.995 --    29 C    0.959
   111   1 H    0.998 --    32 C    0.969
   112   1 H    0.997 --    33 C    0.986
   113   1 H    0.998 --    33 C    0.977
   114   1 H    0.996 --    33 C    0.984
   115   1 H    0.997 --    34 C    0.987
   116   1 H    0.996 --    34 C    0.984
   117   1 H    0.998 --    34 C    0.985
   118   1 H    0.957 --    35 N    0.923
   119   1 H    0.993 --    36 C    0.939
   120   1 H    0.990 --    39 C    0.958
   121   1 H    0.988 --    39 C    0.940
   122   1 H    0.990 --    42 C    0.931
   123   1 H    0.954 --    45 N    0.915
   124   1 H    0.993 --    46 C    0.947
   125   1 H    0.997 --    49 C    0.976
   126   1 H    0.997 --    49 C    0.957
   127   1 H    0.958 --    53 N    0.924
   128   1 H    0.990 --    54 C    0.939
   129   1 H    0.994 --    55 C    0.948
   130   1 H    0.996 --    57 C    0.976
   131   1 H    0.995 --    57 C    0.972
   132   1 H    0.995 --    58 C    0.978
   133   1 H    0.994 --    58 C    0.960
   134   1 H    0.975 --    62 N    0.957
   135   1 H    0.969 --    62 N    0.935
   136   1 H    0.998 --    63 C    0.962
   137   1 H    0.997 --    66 C    0.974
   138   1 H    0.998 --    66 C    0.973
   139   1 H    0.996 --    67 C    0.971
   140   1 H    0.995 --    67 C    0.970
   141   1 H    0.992 --    68 C    0.961
   142   1 H    0.993 --    68 C    0.961
   143   1 H    0.939 --    71 N    0.914
   144   1 H    0.936 --    71 N    0.918
   145   1 H    0.941 --    72 N    0.922
   146   1 H    0.934 --    72 N    0.915
   147   1 H    0.955 --    73 N    0.921
   148   1 H    0.989 --    74 C    0.931
   149   1 H    0.994 --    75 C    0.950
   150   1 H    0.995 --    77 C    0.961
   151   1 H    0.890 --    78 O    0.870
   152   1 H    0.997 --    79 C    0.984
   153   1 H    0.997 --    79 C    0.979
   154   1 H    0.994 --    79 C    0.981
   155   1 H    0.952 --    69 N    0.918
   156   1 H    0.958 --    44 N    0.925
 ---------------------------------------------------------------------------

Topologies differ in total number of bonds
Writing topology from bond orders to xtbtopo.mol

molecular dipole:
                 x           y           z       tot (Debye)
 q only:      -48.683     -11.877     -85.762
   full:      -48.196     -12.335     -86.581     253.810
molecular quadrupole (traceless):
                xx          xy          yy          xz          yz          zz
 q only:     1074.702   -1113.196    4788.713   -6067.591   -1770.284   -5863.415
  q+dip:     1167.248   -1128.659    4819.195   -6064.536   -1845.814   -5986.443
   full:     1166.686   -1129.994    4818.343   -6064.518   -1844.960   -5985.029


           -------------------------------------------------
          | TOTAL ENERGY             -250.682576877562 Eh   |
          | GRADIENT NORM               0.321312760884 Eh/α |
          | HOMO-LUMO GAP               0.034914588019 eV   |
           -------------------------------------------------
########################################################################
[WARNING] Runtime exception occurred
-3- restart_readRestart: Dimension missmatch in restart file.
-2- restart_readRestart: Multiplicity missmatch in restart file.
-1- restart_readRestart: Number of electron missmatch in restart file.
########################################################################

------------------------------------------------------------------------
 * finished run on 2025/05/05 at 16:52:57.457     
------------------------------------------------------------------------
 total:
 * wall-time:     0 d,  0 h,  0 min,  0.710 sec
 *  cpu-time:     0 d,  0 h,  0 min, 21.798 sec
 * ratio c/w:    30.707 speedup
 SCF:
 * wall-time:     0 d,  0 h,  0 min,  0.697 sec
 *  cpu-time:     0 d,  0 h,  0 min, 21.461 sec
 * ratio c/w:    30.804 speedup

