      -----------------------------------------------------------      
     |                   =====================                   |     
     |                           x T B                           |     
     |                   =====================                   |     
     |                         S. Grimme                         |     
     |          Mulliken Center for Theoretical Chemistry        |     
     |                    University of Bonn                     |     
      -----------------------------------------------------------      

   * xtb version 6.7.1 (edcfbbe) compiled by 'conda@afd1a870197c' on 2025-04-11

   xtb is free software: you can redistribute it and/or modify it under
   the terms of the GNU Lesser General Public License as published by
   the Free Software Foundation, either version 3 of the License, or
   (at your option) any later version.
   
   xtb is distributed in the hope that it will be useful,
   but WITHOUT ANY WARRANTY; without even the implied warranty of
   MERCHANTABILITY or FITNESS FOR A PARTICULAR PURPOSE.  See the
   GNU Lesser General Public License for more details.
   
   Cite this work as:
   * C. Bannwarth, E. Caldeweyher, S. Ehlert, A. Hansen, P. Pracht,
     J. Seibert, S. Spicher, S. Grimme, WIREs Comput. Mol. Sci., 2020, 11,
     e01493. DOI: 10.1002/wcms.1493
   
   for GFN2-xTB:
   * C. Bannwarth, S. Ehlert and S. Grimme., J. Chem. Theory Comput., 2019,
     15, 1652-1671. DOI: 10.1021/acs.jctc.8b01176
   for GFN1-xTB:
   * S. Grimme, C. Bannwarth, P. Shushkov, J. Chem. Theory Comput., 2017,
     13, 1989-2009. DOI: 10.1021/acs.jctc.7b00118
   for GFN0-xTB:
   * P. Pracht, E. Caldeweyher, S. Ehlert, S. Grimme, ChemRxiv, 2019, preprint.
     DOI: 10.26434/chemrxiv.8326202.v1
   for GFN-FF:
   * S. Spicher and S. Grimme, Angew. Chem. Int. Ed., 2020, 59, 15665-15673.
     DOI: 10.1002/anie.202004239
   
   for ALPB and GBSA implicit solvation:
   * S. Ehlert, M. Stahn, S. Spicher, S. Grimme, J. Chem. Theory Comput.,
     2021, 17, 4250-4261. DOI: 10.1021/acs.jctc.1c00471
   
   for ddCOSMO and CPCM-X implicit solvation:
   * M. Stahn, S. Ehlert, S. Grimme, J. Phys. Chem. A,
     2023, XX, XXXX-XXXX. DOI: 10.1021/acs.jpca.3c04382
   
   for DFT-D4:
   * E. Caldeweyher, C. Bannwarth and S. Grimme, J. Chem. Phys., 2017,
     147, 034112. DOI: 10.1063/1.4993215
   * E. Caldeweyher, S. Ehlert, A. Hansen, H. Neugebauer, S. Spicher,
     C. Bannwarth and S. Grimme, J. Chem. Phys., 2019, 150, 154122.
     DOI: 10.1063/1.5090222
   * E. Caldeweyher, J.-M. Mewes, S. Ehlert and S. Grimme, Phys. Chem. Chem. Phys.
     2020, 22, 8499-8512. DOI: 10.1039/D0CP00502A
   
   for sTDA-xTB:
   * S. Grimme and C. Bannwarth, J. Chem. Phys., 2016, 145, 054103.
     DOI: 10.1063/1.4959605
   
   in the mass-spec context:
   * V. Asgeirsson, C. Bauer and S. Grimme, Chem. Sci., 2017, 8, 4879.
     DOI: 10.1039/c7sc00601b
   * J. Koopman and S. Grimme, ACS Omega 2019, 4, 12, 15120-15133.
     DOI: 10.1021/acsomega.9b02011
   
   for metadynamics refer to:
   * S. Grimme, J. Chem. Theory Comput., 2019, 155, 2847-2862
     DOI: 10.1021/acs.jctc.9b00143
   
   for SPH calculations refer to:
   * S. Spicher and S. Grimme, J. Chem. Theory Comput., 2021, 17, 1701-1714
     DOI: 10.1021/acs.jctc.0c01306
   
   for ONIOM refer to:
   * C. Plett, A. Katbashev, S. Ehlert, S. Grimme, M. Bursch,
     Phys. Chem. Chem. Phys., 2023, 25, 17860-17868. DOI: 10.1039/D3CP02178E
   
   for DIPRO refer to:
   * J. Kohn, N. Gildemeister, S. Grimme, D. Fazzi, A. Hansen,
     J. Chem. Phys., 2023, just accepted.
   
   for PTB refer to:
   * S. Grimme, M. Mueller, A. Hansen, J. Chem. Phys., 2023, 158, 124111.
     DOI: 10.1063/5.0137838
   
   with help from (in alphabetical order)
   P. Atkinson, C. Bannwarth, F. Bohle, G. Brandenburg, E. Caldeweyher
   M. Checinski, S. Dohm, S. Ehlert, S. Ehrlich, I. Gerasimov, C. Hölzer
   A. Katbashev, J. Kohn, J. Koopman, C. Lavigne, S. Lehtola, F. März, M. Müller,
   F. Musil, H. Neugebauer, J. Pisarek, C. Plett, P. Pracht, F. Pultar,
   J. Seibert, P. Shushkov, S. Spicher, M. Stahn, M. Steiner, T. Strunk,
   J. Stückrath, T. Rose, and J. Unsleber
   
 * started run on 2025/05/05 at 16:44:03.037     
   ID    Z sym.   atoms
    1    7 N      1, 9, 16, 18-20, 27, 33, 36, 37, 43, 46, 47, 53, 60, 62-64,
                  73, 81, 90, 95
    2    6 C      2, 3, 5, 6, 10, 11, 13-15, 17, 21, 22, 24, 26, 28, 29, 31,
                  32, 34, 35, 38, 39, 41, 42, 44, 45, 48, 49, 51, 54, 55,
                  57-59, 61, 65, 66, 68-70, 74, 75, 77-80, 82, 83, 85-87, 91,
                  92, 94, 96, 97, 99-105
    3    8 O      4, 7, 8, 12, 23, 25, 30, 40, 50, 52, 56, 67, 71, 72, 76,
                  84, 88, 89, 93, 98, 106
    4    1 H      107-240

           -------------------------------------------------
          |                Calculation Setup                |
           -------------------------------------------------

          program call               : xtb /tmp/tmp_fauo3rj/HID/input.xyz --alpb ether --chrg -2 --input /tmp/tmp_fauo3rj/HID/constraints.inp --gfn 2
          hostname                   : fedora
          coordinate file            : /tmp/tmp_fauo3rj/HID/input.xyz
          omp threads                :                    32


molecular fragmentation (1/2 indicates fragments):
111111112222222222222222222222222222222222222222222222222222222222222222
222222222222222222222222222222222222222222222222222211111122222222222222
222222222222222222222222222222222222222222222222222222222222222222222222
222222222222222222222222
# atoms in fragment 1/2:    14   226
 fragment masses (1/2) :      116.10     1419.78
CMA distance (Bohr)    :  17.219
constraining FC (au)   :  0.0500
########################################################################
[WARNING] Please study the warnings concerning your input carefully
-1- readin_getIntValue: could not parse 'S'
########################################################################

           -------------------------------------------------
          |                 G F N 2 - x T B                 |
           -------------------------------------------------

        Reference                      10.1021/acs.jctc.8b01176
      * Hamiltonian:
        H0-scaling (s, p, d)           1.850000    2.230000    2.230000
        zeta-weighting                 0.500000
      * Dispersion:
        s8                             2.700000
        a1                             0.520000
        a2                             5.000000
        s9                             5.000000
      * Repulsion:
        kExp                           1.500000    1.000000
        rExp                           1.000000
      * Coulomb:
        alpha                          2.000000
        third order                    shell-resolved
        anisotropic                    true
        a3                             3.000000
        a5                             4.000000
        cn-shift                       1.200000
        cn-exp                         4.000000
        max-rad                        5.000000

      * Solvation model:               ALPB
        Solvent                        ether
        Parameter file                 internal GFN2-xTB/ALPB
        Dielectric constant                4.3300E+00
        Reference state                gsolv [1 M gas/solution]
        Free energy shift                  4.9534E-03 Eh       3.1083E+00 kcal/mol
        Temperature                        2.9815E+02 K
        Density                            7.1300E-01 kg/L
        Solvent mass                       7.4120E+01 g/mol
        Interaction kernel             P16
        Born radius scaling (c1)           1.5847E+00
        Born radii integrator          GBOBC
        Born offset                        0.0000E+00 a0       0.0000E+00 AA
        H-bond correction              true
        Ion screening                  false
        Surface tension                    1.0000E-05 Eh       1.5569E+01 dyn/cm
        Grid points                               230 per atom

          ...................................................
          :                      SETUP                      :
          :.................................................:
          :  # basis functions                 558          :
          :  # atomic orbitals                 558          :
          :  # shells                          346          :
          :  # electrons                       624          :
          :  max. iterations                   250          :
          :  Hamiltonian                  GFN2-xTB          :
          :  restarted?                      false          :
          :  GBSA solvation                   true          :
          :  PC potential                    false          :
          :  electronic temp.          300.0000000     K    :
          :  accuracy                    1.0000000          :
          :  -> integral cutoff          0.2500000E+02      :
          :  -> integral neglect         0.1000000E-07      :
          :  -> SCF convergence          0.1000000E-05 Eh   :
          :  -> wf. convergence          0.1000000E-03 e    :
          :  Broyden damping             0.4000000          :
          :  net charge                         -2          :
          :  unpaired electrons                  0          :
          ...................................................

 iter      E             dE          RMSdq      gap      omega  full diag
   1   -356.0132869 -0.356013E+03  0.446E+00    0.06       0.0  T
   2   -352.8379837  0.317530E+01  0.390E+00    0.24       1.0  T
   3   -356.3748588 -0.353688E+01  0.250E+00    0.82       1.0  T
   4   -356.7685266 -0.393668E+00  0.186E+00    0.19       1.0  T
   5   -357.2052040 -0.436677E+00  0.141E+00    0.56       1.0  T
   6   -357.3391227 -0.133919E+00  0.147E+00    0.35       1.0  T
   7   -357.6144465 -0.275324E+00  0.896E-01    0.08       1.0  T
   8   -357.5797242  0.347224E-01  0.101E+00    0.28       1.0  T
   9   -357.2619959  0.317728E+00  0.107E+00    0.56       1.0  T
  10   -357.6343046 -0.372309E+00  0.756E-01    0.19       1.0  T
  11   -357.6741623 -0.398577E-01  0.593E-01    0.16       1.0  T
  12   -357.7153296 -0.411674E-01  0.426E-01    0.11       1.0  T
  13   -357.5773724  0.137957E+00  0.678E-01    0.05       1.0  T
  14   -357.7503852 -0.173013E+00  0.257E-01    0.08       1.0  T
  15   -357.7665806 -0.161954E-01  0.119E-01    0.06       1.0  T
  16   -357.7146644  0.519162E-01  0.363E-01    0.12       1.0  T
  17   -357.7687191 -0.540547E-01  0.747E-02    0.05       1.0  T
  18   -357.7631842  0.553487E-02  0.136E-01    0.07       1.0  T
  19   -357.7703306 -0.714639E-02  0.249E-02    0.05       1.0  T
  20   -357.7705445 -0.213865E-03  0.956E-03    0.05       1.0  T
  21   -357.7691315  0.141300E-02  0.592E-02    0.04       1.0  T
  22   -357.7704284 -0.129692E-02  0.196E-02    0.04       1.0  T
  23   -357.7704869 -0.585728E-04  0.154E-02    0.04       1.0  T
  24   -357.7705820 -0.950533E-04  0.255E-03    0.04       2.5  T
  25   -357.7705671  0.148561E-04  0.654E-03    0.04       1.0  T
  26   -357.7705741 -0.690827E-05  0.509E-03    0.04       1.3  T
  27   -357.7705842 -0.101416E-04  0.113E-03    0.04       5.7  T
  28   -357.7705847 -0.484737E-06  0.932E-05    0.04      69.3  T
  29   -357.7705846  0.442355E-07  0.330E-04    0.04      19.6  T

   *** convergence criteria satisfied after 29 iterations ***

         #    Occupation            Energy/Eh            Energy/eV
      -------------------------------------------------------------
         1        2.0000           -0.7196540             -19.5828
       ...           ...                  ...                  ...
       306        2.0000           -0.3130471              -8.5184
       307        2.0000           -0.3117444              -8.4830
       308        2.0000           -0.3107264              -8.4553
       309        2.0000           -0.3075847              -8.3698
       310        2.0000           -0.3044591              -8.2848
       311        1.9726           -0.2913818              -7.9289
       312        1.4135           -0.2881534              -7.8411 (HOMO)
       313        0.6125           -0.2865408              -7.7972 (LUMO)
       314        0.0014           -0.2804106              -7.6304
       315                         -0.2707047              -7.3663
       316                         -0.2635845              -7.1725
       317                         -0.2343301              -6.3764
       ...                                ...                  ...
       558                          2.0460154              55.6749
      -------------------------------------------------------------
                  HL-Gap            0.0016126 Eh            0.0439 eV
             Fermi-level           -0.2873177 Eh           -7.8183 eV

 SCC (total)                   0 d,  0 h,  0 min,  1.499 sec
 SCC setup                      ...        0 min,  0.004 sec (  0.235%)
 Dispersion                     ...        0 min,  0.009 sec (  0.618%)
 classical contributions        ...        0 min,  0.000 sec (  0.024%)
 integral evaluation            ...        0 min,  0.015 sec (  0.986%)
 iterations                     ...        0 min,  1.400 sec ( 93.392%)
 molecular gradient             ...        0 min,  0.068 sec (  4.559%)
 printout                       ...        0 min,  0.003 sec (  0.184%)

         :::::::::::::::::::::::::::::::::::::::::::::::::::::
         ::                     SUMMARY                     ::
         :::::::::::::::::::::::::::::::::::::::::::::::::::::
         :: total energy            -351.871079832164 Eh    ::
         :: total w/o Gsasa/hb      -351.776104293021 Eh    ::
         :: gradient norm              1.277502171279 Eh/a0 ::
         :: HOMO-LUMO gap              0.043880344809 eV    ::
         ::.................................................::
         :: SCC energy              -357.744665777730 Eh    ::
         :: -> isotropic ES            1.323744894730 Eh    ::
         :: -> anisotropic ES          0.057889767376 Eh    ::
         :: -> anisotropic XC          0.208481531166 Eh    ::
         :: -> dispersion             -0.285446060518 Eh    ::
         :: -> Gsolv                  -0.369799618656 Eh    ::
         ::    -> Gelec               -0.274824079514 Eh    ::
         ::    -> Gsasa               -0.080616739386 Eh    ::
         ::    -> Ghb                 -0.019312237334 Eh    ::
         ::    -> Gshift               0.004953437577 Eh    ::
         :: repulsion energy           5.873585945566 Eh    ::
         :: add. restraining           0.000000000000 Eh    ::
         :: total charge              -1.999999999996 e     ::
         :::::::::::::::::::::::::::::::::::::::::::::::::::::

           -------------------------------------------------
          |                Property Printout                |
           -------------------------------------------------

    * Orbital Energies and Occupations

         #    Occupation            Energy/Eh            Energy/eV
      -------------------------------------------------------------
         1        2.0000           -0.7196540             -19.5828
       ...           ...                  ...                  ...
       300        2.0000           -0.3285348              -8.9399
       301        2.0000           -0.3267725              -8.8919
       302        2.0000           -0.3227378              -8.7821
       303        2.0000           -0.3199901              -8.7074
       304        2.0000           -0.3195650              -8.6958
       305        2.0000           -0.3175237              -8.6403
       306        2.0000           -0.3130471              -8.5184
       307        2.0000           -0.3117444              -8.4830
       308        2.0000           -0.3107264              -8.4553
       309        2.0000           -0.3075847              -8.3698
       310        2.0000           -0.3044591              -8.2848
       311        1.9726           -0.2913818              -7.9289
       312        1.4135           -0.2881534              -7.8411 (HOMO)
       313        0.6125           -0.2865408              -7.7972 (LUMO)
       314        0.0014           -0.2804106              -7.6304
       315                         -0.2707047              -7.3663
       316                         -0.2635845              -7.1725
       317                         -0.2343301              -6.3764
       318                         -0.2206123              -6.0032
       319                         -0.2092050              -5.6928
       320                         -0.2053891              -5.5889
       321                         -0.2000306              -5.4431
       322                         -0.1974012              -5.3716
       323                         -0.1932235              -5.2579
       ...                                ...                  ...
       558                          2.0460154              55.6749
      -------------------------------------------------------------
                  HL-Gap            0.0016126 Eh            0.0439 eV
             Fermi-level           -0.2873177 Eh           -7.8183 eV

     #   Z          covCN         q      C6AA      α(0)
     1   7 N        2.627    -0.367    29.471     8.063
     2   6 C        3.780     0.036    19.994     6.370
     3   6 C        2.760     0.195    23.833     7.995
     4   8 O        0.856    -0.378    21.247     6.180
     5   6 C        3.804    -0.089    22.202     6.708
     6   6 C        2.686     0.362    20.856     7.474
     7   8 O        0.856    -0.613    26.430     6.893
     8   8 O        0.857    -0.620    26.624     6.918
     9   7 N        2.631    -0.364    29.398     8.053
    10   6 C        3.785     0.030    20.088     6.384
    11   6 C        2.767     0.198    23.778     7.986
    12   8 O        0.856    -0.361    20.913     6.131
    13   6 C        3.812    -0.077    21.957     6.670
    14   6 C        3.808    -0.076    21.942     6.668
    15   6 C        3.745    -0.023    21.061     6.547
    16   7 N        2.700    -0.153    24.311     7.323
    17   6 C        2.736     0.242    22.938     7.841
    18   7 N        2.653    -0.226    25.939     7.564
    19   7 N        2.654    -0.245    26.389     7.629
    20   7 N        2.629    -0.383    29.917     8.123
    21   6 C        3.792     0.022    20.213     6.403
    22   6 C        2.763     0.272    22.406     7.752
    23   8 O        0.860    -0.509    23.984     6.566
    24   6 C        3.735     0.119    18.715     6.174
    25   8 O        1.653    -0.483    22.529     6.407
    26   6 C        3.761    -0.136    23.161     6.861
    27   7 N        2.690    -0.174    24.773     7.392
    28   6 C        3.805     0.026    20.140     6.389
    29   6 C        2.756     0.272    22.407     7.752
    30   8 O        0.858    -0.493    23.628     6.517
    31   6 C        3.812    -0.053    21.507     6.601
    32   6 C        3.098     0.038    27.029     8.520
    33   7 N        1.982    -0.359    30.151     8.143
    34   6 C        3.049    -0.003    28.043     8.685
    35   6 C        2.113     0.080    28.841     8.678
    36   7 N        1.981    -0.330    29.377     8.038
    37   7 N        2.691    -0.161    24.483     7.349
    38   6 C        3.796     0.030    20.078     6.381
    39   6 C        2.753     0.277    22.316     7.736
    40   8 O        0.860    -0.496    23.692     6.526
    41   6 C        3.812    -0.071    21.854     6.654
    42   6 C        3.079    -0.007    28.117     8.693
    43   7 N        2.843    -0.124    23.678     7.227
    44   6 C        3.071     0.011    27.695     8.629
    45   6 C        2.119    -0.060    32.444     9.205
    46   7 N        1.966    -0.348    29.870     8.105
    47   7 N        2.686    -0.194    25.209     7.457
    48   6 C        3.792     0.013    20.367     6.427
    49   6 C        2.757     0.272    22.409     7.752
    50   8 O        0.859    -0.492    23.599     6.513
    51   6 C        3.682     0.070    19.612     6.342
    52   8 O        1.655    -0.457    21.978     6.329
    53   7 N        2.688    -0.173    24.741     7.387
    54   6 C        3.798     0.019    20.256     6.408
    55   6 C        2.751     0.272    22.407     7.751
    56   8 O        0.859    -0.487    23.500     6.499
    57   6 C        3.803    -0.079    22.012     6.680
    58   6 C        3.800    -0.078    21.990     6.677
    59   6 C        3.738    -0.020    21.006     6.540
    60   7 N        2.697    -0.152    24.291     7.320
    61   6 C        2.735     0.236    23.060     7.862
    62   7 N        2.655    -0.237    26.205     7.603
    63   7 N        2.653    -0.257    26.673     7.670
    64   7 N        2.687    -0.180    24.894     7.410
    65   6 C        3.794     0.015    20.326     6.420
    66   6 C        2.753     0.270    22.439     7.757
    67   8 O        0.859    -0.483    23.413     6.487
    68   6 C        3.810    -0.045    21.376     6.581
    69   6 C        3.807    -0.081    22.038     6.683
    70   6 C        2.688     0.361    20.869     7.476
    71   8 O        0.856    -0.631    26.883     6.951
    72   8 O        0.856    -0.633    26.942     6.959
    73   7 N        2.691    -0.162    24.504     7.352
    74   6 C        3.794     0.023    20.199     6.400
    75   6 C        2.766     0.206    23.625     7.960
    76   8 O        0.856    -0.358    20.864     6.124
    77   6 C        3.854    -0.014    20.794     6.486
    78   6 C        3.807    -0.061    21.662     6.626
    79   6 C        3.763    -0.123    22.903     6.822
    80   6 C        3.753    -0.113    22.725     6.798
    81   7 N        2.629    -0.363    29.376     8.050
    82   6 C        3.790     0.040    19.915     6.356
    83   6 C        2.759     0.264    22.546     7.776
    84   8 O        0.859    -0.492    23.604     6.514
    85   6 C        3.815    -0.043    21.328     6.573
    86   6 C        3.808    -0.089    22.188     6.705
    87   6 C        2.689     0.354    20.988     7.498
    88   8 O        0.856    -0.650    27.381     7.016
    89   8 O        0.857    -0.636    27.022     6.969
    90   7 N        2.688    -0.175    24.799     7.396
    91   6 C        3.793     0.022    20.205     6.401
    92   6 C        2.752     0.267    22.490     7.766
    93   8 O        0.858    -0.505    23.888     6.553
    94   6 C        3.756    -0.133    23.114     6.855
    95   7 N        2.689    -0.153    24.303     7.322
    96   6 C        3.798     0.033    20.016     6.370
    97   6 C        2.872     0.082    26.169     8.386
    98   8 O        0.856    -0.373    21.153     6.166
    99   6 C        3.816    -0.072    21.864     6.655
   100   6 C        2.971    -0.005    28.137     8.701
   101   6 C        2.934    -0.046    29.153     8.855
   102   6 C        2.931    -0.047    29.172     8.858
   103   6 C        2.922    -0.072    29.807     8.953
   104   6 C        2.919    -0.059    29.467     8.902
   105   6 C        2.852     0.148    24.788     8.160
   106   8 O        1.661    -0.449    21.822     6.306
   107   1 H        0.980    -0.002     3.090     2.747
   108   1 H        0.980    -0.005     3.141     2.769
   109   1 H        0.980     0.017     2.766     2.599
   110   1 H        0.980     0.002     3.018     2.715
   111   1 H        0.980    -0.003     3.108     2.755
   112   1 H        0.980    -0.003     3.094     2.749
   113   1 H        0.980    -0.003     3.108     2.755
   114   1 H        0.980     0.009     2.898     2.660
   115   1 H        0.980     0.008     2.917     2.669
   116   1 H        0.980     0.021     2.709     2.572
   117   1 H        0.980    -0.002     3.085     2.745
   118   1 H        0.980     0.018     2.751     2.592
   119   1 H        0.980    -0.132     6.791     4.072
   120   1 H        0.980    -0.011     3.252     2.818
   121   1 H        0.980     0.018     2.749     2.591
   122   1 H        0.980    -0.006     3.159     2.777
   123   1 H        0.980    -0.009     3.214     2.802
   124   1 H        0.980     0.017     2.767     2.599
   125   1 H        0.860     0.167     1.291     1.780
   126   1 H        0.860     0.149     1.410     1.860
   127   1 H        0.927     0.071     2.071     2.250
   128   1 H        0.929     0.058     2.226     2.333
   129   1 H        0.927     0.034     2.535     2.490
   130   1 H        0.927     0.032     2.552     2.498
   131   1 H        0.860     0.162     1.319     1.799
   132   1 H        0.860     0.166     1.300     1.786
   133   1 H        0.927     0.060     2.193     2.316
   134   1 H        0.929     0.066     2.131     2.283
   135   1 H        0.927     0.051     2.313     2.378
   136   1 H        0.927     0.062     2.175     2.306
   137   1 H        0.927     0.072     2.062     2.246
   138   1 H        0.926     0.062     2.172     2.305
   139   1 H        0.926     0.085     1.930     2.172
   140   1 H        0.927     0.075     2.031     2.228
   141   1 H        0.861     0.232     0.954     1.530
   142   1 H        0.861     0.239     0.925     1.507
   143   1 H        0.861     0.236     0.939     1.518
   144   1 H        0.861     0.242     0.914     1.498
   145   1 H        0.860     0.148     1.416     1.864
   146   1 H        0.860     0.171     1.268     1.764
   147   1 H        0.927     0.030     2.583     2.513
   148   1 H        0.927     0.048     2.348     2.396
   149   1 H        0.804     0.326     0.647     1.263
   150   1 H        0.927     0.062     2.177     2.307
   151   1 H        0.927     0.048     2.346     2.395
   152   1 H        0.927     0.061     2.185     2.312
   153   1 H        0.861     0.218     1.019     1.581
   154   1 H        0.927     0.076     2.017     2.221
   155   1 H        0.927     0.037     2.485     2.465
   156   1 H        0.927     0.061     2.193     2.316
   157   1 H        0.929     0.010     2.886     2.656
   158   1 H        0.861     0.201     1.100     1.643
   159   1 H        0.927     0.084     1.942     2.179
   160   1 H        0.927     0.056     2.245     2.343
   161   1 H        0.927     0.061     2.185     2.312
   162   1 H        0.929     0.004     2.989     2.703
   163   1 H        0.861     0.227     0.979     1.550
   164   1 H        0.927     0.091     1.870     2.139
   165   1 H        0.927     0.053     2.285     2.364
   166   1 H        0.927     0.081     1.967     2.193
   167   1 H        0.804     0.313     0.684     1.299
   168   1 H        0.861     0.205     1.083     1.630
   169   1 H        0.927     0.094     1.845     2.124
   170   1 H        0.927     0.070     2.081     2.256
   171   1 H        0.927     0.063     2.167     2.302
   172   1 H        0.927     0.060     2.202     2.320
   173   1 H        0.927     0.069     2.097     2.264
   174   1 H        0.926     0.087     1.905     2.158
   175   1 H        0.927     0.076     2.018     2.221
   176   1 H        0.861     0.231     0.962     1.536
   177   1 H        0.861     0.247     0.894     1.481
   178   1 H        0.862     0.265     0.827     1.425
   179   1 H        0.861     0.234     0.947     1.524
   180   1 H        0.861     0.206     1.074     1.623
   181   1 H        0.927     0.086     1.921     2.167
   182   1 H        0.927     0.041     2.441     2.443
   183   1 H        0.927     0.047     2.361     2.403
   184   1 H        0.927     0.026     2.640     2.541
   185   1 H        0.927     0.024     2.669     2.555
   186   1 H        0.861     0.214     1.037     1.595
   187   1 H        0.926     0.083     1.950     2.184
   188   1 H        0.929     0.072     2.066     2.247
   189   1 H        0.927     0.051     2.312     2.378
   190   1 H        0.926     0.029     2.596     2.519
   191   1 H        0.927     0.045     2.381     2.413
   192   1 H        0.927     0.050     2.322     2.383
   193   1 H        0.927     0.037     2.482     2.464
   194   1 H        0.926     0.068     2.108     2.270
   195   1 H        0.927     0.041     2.438     2.441
   196   1 H        0.927     0.042     2.419     2.432
   197   1 H        0.927     0.052     2.298     2.370
   198   1 H        0.860     0.151     1.394     1.849
   199   1 H        0.860     0.156     1.360     1.827
   200   1 H        0.927     0.017     2.785     2.610
   201   1 H        0.927     0.028     2.610     2.526
   202   1 H        0.926     0.037     2.491     2.468
   203   1 H        0.927     0.035     2.523     2.484
   204   1 H        0.926     0.031     2.577     2.510
   205   1 H        0.861     0.204     1.084     1.631
   206   1 H        0.926     0.080     1.978     2.199
   207   1 H        0.927     0.068     2.112     2.273
   208   1 H        0.927     0.075     2.030     2.228
   209   1 H        0.927     0.068     2.108     2.271
   210   1 H        0.861     0.217     1.023     1.585
   211   1 H        0.927     0.075     2.036     2.231
   212   1 H        1.888     0.205     1.067     1.613
   213   1 H        0.927     0.066     2.131     2.283
   214   1 H        0.927     0.073     2.052     2.240
   215   1 H        0.929     0.052     2.297     2.370
   216   1 H        0.929     0.052     2.293     2.368
   217   1 H        0.929     0.056     2.245     2.343
   218   1 H        0.929     0.043     2.411     2.428
   219   1 H        0.807     0.349     0.590     1.206
   220   1 H        0.980     0.004     2.978     2.697
   221   1 H        0.980     0.004     2.975     2.695
   222   1 H        0.980    -0.017     3.367     2.867
   223   1 H        0.980    -0.000     3.053     2.730
   224   1 H        0.980     0.002     3.009     2.711
   225   1 H        0.980     0.003     2.997     2.705
   226   1 H        0.980     0.003     3.005     2.709
   227   1 H        0.980    -0.007     3.176     2.785
   228   1 H        0.980    -0.008     3.186     2.789
   229   1 H        0.980    -0.023     3.470     2.911
   230   1 H        0.980     0.002     3.018     2.715
   231   1 H        0.980     0.006     2.942     2.680
   232   1 H        2.045     0.168     1.265     1.756
   233   1 H        0.980     0.013     2.827     2.627
   234   1 H        0.980    -0.019     3.409     2.885
   235   1 H        0.980     0.007     2.939     2.679
   236   1 H        0.980     0.012     2.851     2.639
   237   1 H        0.980    -0.017     3.356     2.863
   238   1 H        0.860     0.217     1.025     1.586
   239   1 H        0.860     0.208     1.067     1.618
   240   1 H        0.858     0.146     1.428     1.872

 Mol. C6AA /au·bohr⁶  :     504836.511453
 Mol. C8AA /au·bohr⁸  :   10782297.870007
 Mol. α(0) /au        :       1071.045548


Wiberg/Mayer (AO) data.
largest (>0.10) Wiberg bond orders for each atom

 ---------------------------------------------------------------------------
     #   Z sym  total        # sym  WBO       # sym  WBO       # sym  WBO
 ---------------------------------------------------------------------------
     1   7 N    2.996 --     2 C    1.017   126 H    0.964   125 H    0.956
     2   6 C    3.982 --     1 N    1.017     3 C    0.986   127 H    0.952
                             5 C    0.949
     3   6 C    3.902 --     4 O    1.879     2 C    0.986   128 H    0.950
     4   8 O    2.030 --     3 C    1.879
     5   6 C    3.986 --   130 H    0.969   129 H    0.967     2 C    0.949
                             6 C    0.919
     6   6 C    3.941 --     7 O    1.524     8 O    1.458     5 C    0.919
     7   8 O    1.827 --     6 C    1.524     8 O    0.215
     8   8 O    1.825 --     6 C    1.458     7 O    0.215
     9   7 N    2.998 --    10 C    1.014   132 H    0.957   131 H    0.952
    10   6 C    3.988 --     9 N    1.014    11 C    0.988   133 H    0.953
                            13 C    0.951
    11   6 C    3.900 --    12 O    1.901    10 C    0.988   134 H    0.951
    12   8 O    2.042 --    11 C    1.901
    13   6 C    3.994 --    14 C    1.007   135 H    0.974   136 H    0.973
                            10 C    0.951
    14   6 C    3.993 --    15 C    1.007    13 C    1.007   137 H    0.968
                           138 H    0.966
    15   6 C    3.955 --    14 C    1.007    16 N    0.975   139 H    0.960
                           140 H    0.956
    16   7 N    3.431 --    17 C    1.289    15 C    0.975   238 H    0.920
    17   6 C    3.975 --    18 N    1.339    19 N    1.322    16 N    1.289
    18   7 N    3.429 --    17 C    1.339   141 H    0.922   142 H    0.911
                            19 N    0.108
    19   7 N    3.405 --    17 C    1.322   143 H    0.925   144 H    0.908
                            18 N    0.108
    20   7 N    2.980 --    21 C    1.011   145 H    0.961   146 H    0.946
    21   6 C    3.986 --    20 N    1.011    24 C    0.960   147 H    0.954
                            22 C    0.945
    22   6 C    3.949 --    23 O    1.614    27 N    1.319    21 C    0.945
    23   8 O    1.931 --    22 C    1.614    27 N    0.197
    24   6 C    3.957 --    26 C    1.004    25 O    0.986   148 H    0.962
                            21 C    0.960
    25   8 O    1.935 --    24 C    0.986   149 H    0.877
    26   6 C    3.993 --    24 C    1.004   151 H    0.984   152 H    0.982
                           150 H    0.975
    27   7 N    3.483 --    22 C    1.319    28 C    0.975   153 H    0.885
                            23 O    0.197
    28   6 C    3.964 --    27 N    0.975    31 C    0.960   154 H    0.955
                            29 C    0.942
    29   6 C    3.947 --    30 O    1.624    37 N    1.306    28 C    0.942
    30   8 O    1.929 --    29 C    1.624    37 N    0.196
    31   6 C    3.990 --    32 C    1.004   156 H    0.963   155 H    0.961
                            28 C    0.960
    32   6 C    3.905 --    34 C    1.519    33 N    1.222    31 C    1.004
    33   7 N    2.882 --    35 C    1.465    32 C    1.222    36 N    0.103
    34   6 C    3.886 --    32 C    1.519    36 N    1.203   157 H    0.965
                            35 C    0.103
    35   6 C    3.298 --    36 N    1.615    33 N    1.465    34 C    0.103
    36   7 N    2.997 --    35 C    1.615    34 C    1.203    33 N    0.103
    37   7 N    3.480 --    29 C    1.306    38 C    0.983   158 H    0.924
                            30 O    0.196
    38   6 C    3.967 --    37 N    0.983    41 C    0.964    39 C    0.941
                           159 H    0.939
    39   6 C    3.946 --    40 O    1.614    47 N    1.300    38 C    0.941
    40   8 O    1.961 --    39 C    1.614    47 N    0.186
    41   6 C    3.990 --    42 C    1.015   160 H    0.968    38 C    0.964
                           161 H    0.950
    42   6 C    3.899 --    44 C    1.573    43 N    1.111    41 C    1.015
                            45 C    0.109
    43   7 N    3.512 --    45 C    1.311    42 C    1.111   240 H    0.892
    44   6 C    3.930 --    42 C    1.573    46 N    1.251   162 H    0.972
    45   6 C    3.007 --    46 N    1.521    43 N    1.311    42 C    0.109
    46   7 N    2.948 --    45 C    1.521    44 C    1.251
    47   7 N    3.452 --    39 C    1.300    48 C    0.971   163 H    0.889
                            40 O    0.186
    48   6 C    3.960 --    47 N    0.971    51 C    0.969   164 H    0.945
                            49 C    0.936
    49   6 C    3.952 --    50 O    1.628    53 N    1.306    48 C    0.936
    50   8 O    1.944 --    49 C    1.628    53 N    0.195
    51   6 C    3.954 --    52 O    1.006    48 C    0.969   166 H    0.968
                           165 H    0.962
    52   8 O    1.951 --    51 C    1.006   167 H    0.876
    53   7 N    3.475 --    49 C    1.306    54 C    0.973   168 H    0.881
                            50 O    0.195
    54   6 C    3.957 --    57 C    0.979    53 N    0.973   169 H    0.946
                            55 C    0.930
    55   6 C    3.950 --    56 O    1.635    64 N    1.311    54 C    0.930
    56   8 O    1.953 --    55 C    1.635    64 N    0.199
    57   6 C    3.981 --    58 C    1.000    54 C    0.979   170 H    0.972
                           171 H    0.964
    58   6 C    3.991 --    57 C    1.000    59 C    0.996   172 H    0.980
                           173 H    0.975
    59   6 C    3.959 --    58 C    0.996    60 N    0.984   175 H    0.969
                           174 H    0.955
    60   7 N    3.435 --    61 C    1.279    59 C    0.984   239 H    0.922
    61   6 C    3.976 --    63 N    1.340    62 N    1.324    60 N    1.279
    62   7 N    3.409 --    61 C    1.324   177 H    0.911   176 H    0.910
                            63 N    0.111
    63   7 N    3.410 --    61 C    1.340   179 H    0.926   178 H    0.861
                            62 N    0.111
    64   7 N    3.477 --    55 C    1.311    65 C    0.971   180 H    0.903
                            56 O    0.199
    65   6 C    3.958 --    64 N    0.971    68 C    0.970   181 H    0.955
                            66 C    0.931
    66   6 C    3.951 --    67 O    1.634    73 N    1.306    65 C    0.931
    67   8 O    1.952 --    66 C    1.634    73 N    0.197
    68   6 C    3.991 --    69 C    1.005   182 H    0.976   183 H    0.972
                            65 C    0.970
    69   6 C    3.989 --    68 C    1.005   185 H    0.977   184 H    0.962
                            70 C    0.936
    70   6 C    3.940 --    72 O    1.491    71 O    1.484    69 C    0.936
    71   8 O    1.803 --    70 C    1.484    72 O    0.216
    72   8 O    1.800 --    70 C    1.491    71 O    0.216
    73   7 N    3.480 --    66 C    1.306    74 C    0.978   186 H    0.911
                            67 O    0.197
    74   6 C    3.961 --    75 C    0.980    73 N    0.978   187 H    0.959
                            77 C    0.927
    75   6 C    3.899 --    76 O    1.898    74 C    0.980   188 H    0.948
    76   8 O    2.047 --    75 C    1.898
    77   6 C    3.986 --    79 C    1.010    78 C    0.996   189 H    0.968
                            74 C    0.927
    78   6 C    3.995 --    80 C    1.010    77 C    0.996   190 H    0.979
                           191 H    0.979
    79   6 C    3.993 --    77 C    1.010   192 H    0.986   193 H    0.979
                           194 H    0.971
    80   6 C    3.993 --    78 C    1.010   196 H    0.986   195 H    0.984
                           197 H    0.981
    81   7 N    2.982 --    82 C    1.010   198 H    0.965   199 H    0.956
    82   6 C    3.988 --    81 N    1.010    85 C    0.970    83 C    0.958
                           200 H    0.957
    83   6 C    3.948 --    84 O    1.636    90 N    1.284    82 C    0.958
    84   8 O    1.934 --    83 C    1.636    90 N    0.188
    85   6 C    3.996 --    86 C    1.005   202 H    0.977   201 H    0.974
                            82 C    0.970
    86   6 C    3.990 --    85 C    1.005   204 H    0.970   203 H    0.957
                            87 C    0.940
    87   6 C    3.942 --    89 O    1.491    88 O    1.482    86 C    0.940
    88   8 O    1.773 --    87 C    1.482    89 O    0.216
    89   8 O    1.795 --    87 C    1.491    88 O    0.216
    90   7 N    3.454 --    83 C    1.284    91 C    0.979   205 H    0.930
                            84 O    0.188
    91   6 C    3.965 --    94 C    0.986    90 N    0.979   206 H    0.955
                            92 C    0.936
    92   6 C    3.946 --    93 O    1.604    95 N    1.318    91 C    0.936
    93   8 O    1.942 --    92 C    1.604    95 N    0.190
    94   6 C    3.984 --    91 C    0.986   207 H    0.984   209 H    0.983
                           208 H    0.981
    95   7 N    3.488 --    92 C    1.318    96 C    0.971   210 H    0.922
                            93 O    0.190
    96   6 C    3.963 --    97 C    0.980    95 N    0.971   211 H    0.952
                            99 C    0.942
    97   6 C    3.835 --    98 O    1.885    96 C    0.980   212 H    0.725
                           119 H    0.164
    98   8 O    2.025 --    97 C    1.885
    99   6 C    3.987 --   100 C    1.009   213 H    0.969   214 H    0.969
                            96 C    0.942
   100   6 C    3.987 --   102 C    1.409   101 C    1.405    99 C    1.009
   101   6 C    3.993 --   103 C    1.451   100 C    1.405   215 H    0.970
                           104 C    0.108
   102   6 C    3.990 --   104 C    1.449   100 C    1.409   216 H    0.970
                           103 C    0.106
   103   6 C    3.990 --   101 C    1.451   105 C    1.377   217 H    0.968
                           102 C    0.106
   104   6 C    3.990 --   102 C    1.449   105 C    1.369   218 H    0.972
                           101 C    0.108
   105   6 C    3.934 --   103 C    1.377   104 C    1.369   106 O    1.061
   106   8 O    2.075 --   105 C    1.061   219 H    0.858
   107   1 H    1.000 --   220 H    0.983
   108   1 H    1.000 --   221 H    0.977
   109   1 H    1.000 --   222 H    0.986
   110   1 H    1.000 --   223 H    0.976
   111   1 H    1.000 --   224 H    0.983
   112   1 H    1.000 --   225 H    0.983
   113   1 H    1.000 --   226 H    0.981
   114   1 H    1.000 --   227 H    0.986
   115   1 H    1.000 --   228 H    0.994
   116   1 H    1.000 --   229 H    0.984
   117   1 H    1.000 --   230 H    0.985
   118   1 H    1.000 --   231 H    0.961
   119   1 H    0.982 --   232 H    0.777    97 C    0.164
   120   1 H    1.000 --   233 H    0.985
   121   1 H    1.000 --   234 H    0.961
   122   1 H    1.000 --   235 H    0.962
   123   1 H    1.000 --   236 H    0.945
   124   1 H    1.000 --   237 H    0.949
   125   1 H    0.972 --     1 N    0.956
   126   1 H    0.978 --     1 N    0.964
   127   1 H    0.995 --     2 C    0.952
   128   1 H    0.997 --     3 C    0.950
   129   1 H    0.999 --     5 C    0.967
   130   1 H    0.999 --     5 C    0.969
   131   1 H    0.974 --     9 N    0.952
   132   1 H    0.973 --     9 N    0.957
   133   1 H    0.996 --    10 C    0.953
   134   1 H    0.996 --    11 C    0.951
   135   1 H    0.997 --    13 C    0.974
   136   1 H    0.996 --    13 C    0.973
   137   1 H    0.995 --    14 C    0.968
   138   1 H    0.996 --    14 C    0.966
   139   1 H    0.993 --    15 C    0.960
   140   1 H    0.994 --    15 C    0.956
   141   1 H    0.946 --    18 N    0.922
   142   1 H    0.943 --    18 N    0.911
   143   1 H    0.944 --    19 N    0.925
   144   1 H    0.941 --    19 N    0.908
   145   1 H    0.978 --    20 N    0.961
   146   1 H    0.971 --    20 N    0.946
   147   1 H    0.999 --    21 C    0.954
   148   1 H    0.998 --    24 C    0.962
   149   1 H    0.893 --    25 O    0.877
   150   1 H    0.996 --    26 C    0.975
   151   1 H    0.998 --    26 C    0.984
   152   1 H    0.996 --    26 C    0.982
   153   1 H    0.952 --    27 N    0.885
   154   1 H    0.994 --    28 C    0.955
   155   1 H    0.996 --    31 C    0.961
   156   1 H    0.994 --    31 C    0.963
   157   1 H    0.999 --    34 C    0.965
   158   1 H    0.959 --    37 N    0.924
   159   1 H    0.992 --    38 C    0.939
   160   1 H    0.994 --    41 C    0.968
   161   1 H    0.995 --    41 C    0.950
   162   1 H    0.998 --    44 C    0.972
   163   1 H    0.948 --    47 N    0.889
   164   1 H    0.991 --    48 C    0.945
   165   1 H    0.997 --    51 C    0.962
   166   1 H    0.993 --    51 C    0.968
   167   1 H    0.902 --    52 O    0.876
   168   1 H    0.958 --    53 N    0.881
   169   1 H    0.991 --    54 C    0.946
   170   1 H    0.994 --    57 C    0.972
   171   1 H    0.996 --    57 C    0.964
   172   1 H    0.996 --    58 C    0.980
   173   1 H    0.995 --    58 C    0.975
   174   1 H    0.992 --    59 C    0.955
   175   1 H    0.994 --    59 C    0.969
   176   1 H    0.947 --    62 N    0.910
   177   1 H    0.939 --    62 N    0.911
   178   1 H    0.930 --    63 N    0.861
   179   1 H    0.945 --    63 N    0.926
   180   1 H    0.957 --    64 N    0.903
   181   1 H    0.992 --    65 C    0.955
   182   1 H    0.998 --    68 C    0.976
   183   1 H    0.998 --    68 C    0.972
   184   1 H    0.999 --    69 C    0.962
   185   1 H    0.999 --    69 C    0.977
   186   1 H    0.954 --    73 N    0.911
   187   1 H    0.993 --    74 C    0.959
   188   1 H    0.994 --    75 C    0.948
   189   1 H    0.997 --    77 C    0.968
   190   1 H    0.999 --    78 C    0.979
   191   1 H    0.998 --    78 C    0.979
   192   1 H    0.997 --    79 C    0.986
   193   1 H    0.999 --    79 C    0.979
   194   1 H    0.995 --    79 C    0.971
   195   1 H    0.998 --    80 C    0.984
   196   1 H    0.997 --    80 C    0.986
   197   1 H    0.997 --    80 C    0.981
   198   1 H    0.977 --    81 N    0.965
   199   1 H    0.975 --    81 N    0.956
   200   1 H    1.000 --    82 C    0.957
   201   1 H    0.999 --    85 C    0.974
   202   1 H    0.999 --    85 C    0.977
   203   1 H    0.998 --    86 C    0.957
   204   1 H    0.999 --    86 C    0.970
   205   1 H    0.958 --    90 N    0.930
   206   1 H    0.993 --    91 C    0.955
   207   1 H    0.995 --    94 C    0.984
   208   1 H    0.994 --    94 C    0.981
   209   1 H    0.995 --    94 C    0.983
   210   1 H    0.953 --    95 N    0.922
   211   1 H    0.994 --    96 C    0.952
   212   1 H    0.958 --    97 C    0.725   232 H    0.183
   213   1 H    0.995 --    99 C    0.969
   214   1 H    0.994 --    99 C    0.969
   215   1 H    0.997 --   101 C    0.970
   216   1 H    0.997 --   102 C    0.970
   217   1 H    0.997 --   103 C    0.968
   218   1 H    0.998 --   104 C    0.972
   219   1 H    0.878 --   106 O    0.858
   220   1 H    1.000 --   107 H    0.983
   221   1 H    1.000 --   108 H    0.977
   222   1 H    1.000 --   109 H    0.986
   223   1 H    1.000 --   110 H    0.976
   224   1 H    1.000 --   111 H    0.983
   225   1 H    1.000 --   112 H    0.983
   226   1 H    1.000 --   113 H    0.981
   227   1 H    1.000 --   114 H    0.986
   228   1 H    1.000 --   115 H    0.994
   229   1 H    0.999 --   116 H    0.984
   230   1 H    1.000 --   117 H    0.985
   231   1 H    1.000 --   118 H    0.961
   232   1 H    0.972 --   119 H    0.777   212 H    0.183
   233   1 H    1.000 --   120 H    0.985
   234   1 H    1.000 --   121 H    0.961
   235   1 H    1.000 --   122 H    0.962
   236   1 H    1.000 --   123 H    0.945
   237   1 H    1.000 --   124 H    0.949
   238   1 H    0.953 --    16 N    0.920
   239   1 H    0.957 --    60 N    0.922
   240   1 H    0.979 --    43 N    0.892
 ---------------------------------------------------------------------------

Topologies differ in total number of bonds
Writing topology from bond orders to xtbtopo.mol

molecular dipole:
                 x           y           z       tot (Debye)
 q only:      243.970      92.973      -6.927
   full:      245.315      92.567      -8.195     666.769
molecular quadrupole (traceless):
                xx          xy          yy          xz          yz          zz
 q only:   -27554.982  -17011.429   10537.555    1327.096     387.094   17017.427
  q+dip:   -27866.128  -17056.571   10734.952    1553.315     485.274   17131.177
   full:   -27872.841  -17056.070   10736.563    1554.174     486.903   17136.278


           -------------------------------------------------
          | TOTAL ENERGY             -351.871079832164 Eh   |
          | GRADIENT NORM               1.277502171279 Eh/α |
          | HOMO-LUMO GAP               0.043880344809 eV   |
           -------------------------------------------------
########################################################################
[WARNING] Runtime exception occurred
-3- restart_readRestart: Dimension missmatch in restart file.
-2- restart_readRestart: Multiplicity missmatch in restart file.
-1- restart_readRestart: Number of electron missmatch in restart file.
########################################################################

------------------------------------------------------------------------
 * finished run on 2025/05/05 at 16:44:04.562     
------------------------------------------------------------------------
 total:
 * wall-time:     0 d,  0 h,  0 min,  1.525 sec
 *  cpu-time:     0 d,  0 h,  0 min, 45.894 sec
 * ratio c/w:    30.095 speedup
 SCF:
 * wall-time:     0 d,  0 h,  0 min,  1.501 sec
 *  cpu-time:     0 d,  0 h,  0 min, 45.258 sec
 * ratio c/w:    30.150 speedup

