      -----------------------------------------------------------      
     |                   =====================                   |     
     |                           x T B                           |     
     |                   =====================                   |     
     |                         S. Grimme                         |     
     |          Mulliken Center for Theoretical Chemistry        |     
     |                    University of Bonn                     |     
      -----------------------------------------------------------      

   * xtb version 6.7.1 (edcfbbe) compiled by 'conda@afd1a870197c' on 2025-04-11

   xtb is free software: you can redistribute it and/or modify it under
   the terms of the GNU Lesser General Public License as published by
   the Free Software Foundation, either version 3 of the License, or
   (at your option) any later version.
   
   xtb is distributed in the hope that it will be useful,
   but WITHOUT ANY WARRANTY; without even the implied warranty of
   MERCHANTABILITY or FITNESS FOR A PARTICULAR PURPOSE.  See the
   GNU Lesser General Public License for more details.
   
   Cite this work as:
   * C. Bannwarth, E. Caldeweyher, S. Ehlert, A. Hansen, P. Pracht,
     J. Seibert, S. Spicher, S. Grimme, WIREs Comput. Mol. Sci., 2020, 11,
     e01493. DOI: 10.1002/wcms.1493
   
   for GFN2-xTB:
   * C. Bannwarth, S. Ehlert and S. Grimme., J. Chem. Theory Comput., 2019,
     15, 1652-1671. DOI: 10.1021/acs.jctc.8b01176
   for GFN1-xTB:
   * S. Grimme, C. Bannwarth, P. Shushkov, J. Chem. Theory Comput., 2017,
     13, 1989-2009. DOI: 10.1021/acs.jctc.7b00118
   for GFN0-xTB:
   * P. Pracht, E. Caldeweyher, S. Ehlert, S. Grimme, ChemRxiv, 2019, preprint.
     DOI: 10.26434/chemrxiv.8326202.v1
   for GFN-FF:
   * S. Spicher and S. Grimme, Angew. Chem. Int. Ed., 2020, 59, 15665-15673.
     DOI: 10.1002/anie.202004239
   
   for ALPB and GBSA implicit solvation:
   * S. Ehlert, M. Stahn, S. Spicher, S. Grimme, J. Chem. Theory Comput.,
     2021, 17, 4250-4261. DOI: 10.1021/acs.jctc.1c00471
   
   for ddCOSMO and CPCM-X implicit solvation:
   * M. Stahn, S. Ehlert, S. Grimme, J. Phys. Chem. A,
     2023, XX, XXXX-XXXX. DOI: 10.1021/acs.jpca.3c04382
   
   for DFT-D4:
   * E. Caldeweyher, C. Bannwarth and S. Grimme, J. Chem. Phys., 2017,
     147, 034112. DOI: 10.1063/1.4993215
   * E. Caldeweyher, S. Ehlert, A. Hansen, H. Neugebauer, S. Spicher,
     C. Bannwarth and S. Grimme, J. Chem. Phys., 2019, 150, 154122.
     DOI: 10.1063/1.5090222
   * E. Caldeweyher, J.-M. Mewes, S. Ehlert and S. Grimme, Phys. Chem. Chem. Phys.
     2020, 22, 8499-8512. DOI: 10.1039/D0CP00502A
   
   for sTDA-xTB:
   * S. Grimme and C. Bannwarth, J. Chem. Phys., 2016, 145, 054103.
     DOI: 10.1063/1.4959605
   
   in the mass-spec context:
   * V. Asgeirsson, C. Bauer and S. Grimme, Chem. Sci., 2017, 8, 4879.
     DOI: 10.1039/c7sc00601b
   * J. Koopman and S. Grimme, ACS Omega 2019, 4, 12, 15120-15133.
     DOI: 10.1021/acsomega.9b02011
   
   for metadynamics refer to:
   * S. Grimme, J. Chem. Theory Comput., 2019, 155, 2847-2862
     DOI: 10.1021/acs.jctc.9b00143
   
   for SPH calculations refer to:
   * S. Spicher and S. Grimme, J. Chem. Theory Comput., 2021, 17, 1701-1714
     DOI: 10.1021/acs.jctc.0c01306
   
   for ONIOM refer to:
   * C. Plett, A. Katbashev, S. Ehlert, S. Grimme, M. Bursch,
     Phys. Chem. Chem. Phys., 2023, 25, 17860-17868. DOI: 10.1039/D3CP02178E
   
   for DIPRO refer to:
   * J. Kohn, N. Gildemeister, S. Grimme, D. Fazzi, A. Hansen,
     J. Chem. Phys., 2023, just accepted.
   
   for PTB refer to:
   * S. Grimme, M. Mueller, A. Hansen, J. Chem. Phys., 2023, 158, 124111.
     DOI: 10.1063/5.0137838
   
   with help from (in alphabetical order)
   P. Atkinson, C. Bannwarth, F. Bohle, G. Brandenburg, E. Caldeweyher
   M. Checinski, S. Dohm, S. Ehlert, S. Ehrlich, I. Gerasimov, C. Hölzer
   A. Katbashev, J. Kohn, J. Koopman, C. Lavigne, S. Lehtola, F. März, M. Müller,
   F. Musil, H. Neugebauer, J. Pisarek, C. Plett, P. Pracht, F. Pultar,
   J. Seibert, P. Shushkov, S. Spicher, M. Stahn, M. Steiner, T. Strunk,
   J. Stückrath, T. Rose, and J. Unsleber
   
 * started run on 2025/05/05 at 16:38:33.591     
   ID    Z sym.   atoms
    1    7 N      1, 9, 10, 21, 28, 34, 42, 48, 51, 52, 59, 67, 75, 83
    2    6 C      2, 3, 5-7, 11, 12, 14-20, 22, 23, 25-27, 29, 30, 32, 35,
                  36, 38-41, 43, 44, 46, 47, 49, 50, 53, 54, 56-58, 60, 61,
                  63-66, 68, 69, 71-74, 76, 77, 79-81
    3    8 O      4, 8, 13, 24, 31, 33, 37, 45, 55, 62, 70, 78, 82
    4    1 H      84-186

           -------------------------------------------------
          |                Calculation Setup                |
           -------------------------------------------------

          program call               : xtb /tmp/tmpbs7gk9ui/HIE/input.xyz --alpb ether --chrg -2 --input /tmp/tmpbs7gk9ui/HIE/constraints.inp --gfn 2
          hostname                   : fedora
          coordinate file            : /tmp/tmpbs7gk9ui/HIE/input.xyz
          omp threads                :                    32


molecular fragmentation (1/2 indicates fragments):
111111111111111111112222222222222222222222222222222222222222222222222222
222222222222222221111111111111111111222222222222222222222222222222222222
222222222222222222222222222222222222222222
# atoms in fragment 1/2:    39   147
 fragment masses (1/2) :      277.32      903.19
CMA distance (Bohr)    :  13.328
constraining FC (au)   :  0.0500
########################################################################
[WARNING] Please study the warnings concerning your input carefully
-1- readin_getIntValue: could not parse 'S'
########################################################################

           -------------------------------------------------
          |                 G F N 2 - x T B                 |
           -------------------------------------------------

        Reference                      10.1021/acs.jctc.8b01176
      * Hamiltonian:
        H0-scaling (s, p, d)           1.850000    2.230000    2.230000
        zeta-weighting                 0.500000
      * Dispersion:
        s8                             2.700000
        a1                             0.520000
        a2                             5.000000
        s9                             5.000000
      * Repulsion:
        kExp                           1.500000    1.000000
        rExp                           1.000000
      * Coulomb:
        alpha                          2.000000
        third order                    shell-resolved
        anisotropic                    true
        a3                             3.000000
        a5                             4.000000
        cn-shift                       1.200000
        cn-exp                         4.000000
        max-rad                        5.000000

      * Solvation model:               ALPB
        Solvent                        ether
        Parameter file                 internal GFN2-xTB/ALPB
        Dielectric constant                4.3300E+00
        Reference state                gsolv [1 M gas/solution]
        Free energy shift                  4.9534E-03 Eh       3.1083E+00 kcal/mol
        Temperature                        2.9815E+02 K
        Density                            7.1300E-01 kg/L
        Solvent mass                       7.4120E+01 g/mol
        Interaction kernel             P16
        Born radius scaling (c1)           1.5847E+00
        Born radii integrator          GBOBC
        Born offset                        0.0000E+00 a0       0.0000E+00 AA
        H-bond correction              true
        Ion screening                  false
        Surface tension                    1.0000E-05 Eh       1.5569E+01 dyn/cm
        Grid points                               230 per atom

          ...................................................
          :                      SETUP                      :
          :.................................................:
          :  # basis functions                 435          :
          :  # atomic orbitals                 435          :
          :  # shells                          269          :
          :  # electrons                       477          :
          :  max. iterations                   250          :
          :  Hamiltonian                  GFN2-xTB          :
          :  restarted?                      false          :
          :  GBSA solvation                   true          :
          :  PC potential                    false          :
          :  electronic temp.          300.0000000     K    :
          :  accuracy                    1.0000000          :
          :  -> integral cutoff          0.2500000E+02      :
          :  -> integral neglect         0.1000000E-07      :
          :  -> SCF convergence          0.1000000E-05 Eh   :
          :  -> wf. convergence          0.1000000E-03 e    :
          :  Broyden damping             0.4000000          :
          :  net charge                         -2          :
          :  unpaired electrons                  0          :
          ...................................................

 iter      E             dE          RMSdq      gap      omega  full diag
   1   -269.3416602 -0.269342E+03  0.404E+00    0.23       0.0  T
   2   -268.8984328  0.443227E+00  0.293E+00    0.95       1.0  T
   3   -269.7450386 -0.846606E+00  0.210E+00    0.03       1.0  T
   4   -270.1295205 -0.384482E+00  0.130E+00    1.11       1.0  T
   5   -270.1530413 -0.235208E-01  0.949E-01    0.10       1.0  T
   6   -270.1958404 -0.427992E-01  0.802E-01    0.22       1.0  T
   7   -270.2183459 -0.225055E-01  0.722E-01    0.19       1.0  T
   8   -270.1936904  0.246555E-01  0.754E-01    0.31       1.0  T
   9   -270.2401214 -0.464310E-01  0.589E-01    0.24       1.0  T
  10   -270.2109103  0.292111E-01  0.673E-01    0.25       1.0  T
  11   -270.2891685 -0.782582E-01  0.369E-01    0.04       1.0  T
  12   -270.2974118 -0.824329E-02  0.304E-01    0.05       1.0  T
  13   -270.2808891  0.165227E-01  0.411E-01    0.02       1.0  T
  14   -270.2062394  0.746497E-01  0.664E-01    0.21       1.0  T
  15   -270.3073414 -0.101102E+00  0.200E-01    0.05       1.0  T
  16   -270.3156236 -0.828217E-02  0.833E-02    0.01       1.0  T
  17   -270.3161343 -0.510651E-03  0.707E-02    0.03       1.0  T
  18   -270.3147862  0.134810E-02  0.101E-01    0.01       1.0  T
  19   -270.3168885 -0.210232E-02  0.462E-02    0.01       1.0  T
  20   -270.3174189 -0.530366E-03  0.107E-02    0.02       1.0  T
  21   -270.3174466 -0.277450E-04  0.260E-03    0.02       2.8  T
  22   -270.3174478 -0.119089E-05  0.142E-03    0.02       5.2  T
  23   -270.3174481 -0.354849E-06  0.793E-04    0.02       9.2  T
  24   -270.3174483 -0.108176E-06  0.456E-04    0.02      16.1  T

   *** convergence criteria satisfied after 24 iterations ***

         #    Occupation            Energy/Eh            Energy/eV
      -------------------------------------------------------------
         1        2.0000           -0.6857213             -18.6594
       ...           ...                  ...                  ...
       233        2.0000           -0.3196009              -8.6968
       234        2.0000           -0.3086467              -8.3987
       235        2.0000           -0.3048334              -8.2949
       236        2.0000           -0.2674761              -7.2784
       237        2.0000           -0.2619713              -7.1286
       238        1.9968           -0.2147570              -5.8438
       239        0.4521           -0.2032089              -5.5296 (HOMO)
       240        0.2782           -0.2024886              -5.5100 (LUMO)
       241        0.2480           -0.2023406              -5.5060
       242        0.0239           -0.1998726              -5.4388
       243        0.0009           -0.1967173              -5.3530
       244        0.0001           -0.1946252              -5.2960
       ...           ...                  ...                  ...
       435                          1.0352784              28.1714
      -------------------------------------------------------------
                  HL-Gap            0.0007203 Eh            0.0196 eV
             Fermi-level           -0.2063435 Eh           -5.6149 eV

 SCC (total)                   0 d,  0 h,  0 min,  0.698 sec
 SCC setup                      ...        0 min,  0.002 sec (  0.348%)
 Dispersion                     ...        0 min,  0.008 sec (  1.101%)
 classical contributions        ...        0 min,  0.000 sec (  0.051%)
 integral evaluation            ...        0 min,  0.012 sec (  1.780%)
 iterations                     ...        0 min,  0.638 sec ( 91.404%)
 molecular gradient             ...        0 min,  0.033 sec (  4.687%)
 printout                       ...        0 min,  0.004 sec (  0.626%)

         :::::::::::::::::::::::::::::::::::::::::::::::::::::
         ::                     SUMMARY                     ::
         :::::::::::::::::::::::::::::::::::::::::::::::::::::
         :: total energy            -266.271770411574 Eh    ::
         :: total w/o Gsasa/hb      -266.206346339302 Eh    ::
         :: gradient norm              0.748385932873 Eh/a0 ::
         :: HOMO-LUMO gap              0.019601680382 eV    ::
         ::.................................................::
         :: SCC energy              -270.297166968975 Eh    ::
         :: -> isotropic ES            0.877278475948 Eh    ::
         :: -> anisotropic ES          0.052183469807 Eh    ::
         :: -> anisotropic XC          0.122478335984 Eh    ::
         :: -> dispersion             -0.233498592396 Eh    ::
         :: -> Gsolv                  -0.268725097966 Eh    ::
         ::    -> Gelec               -0.203301025694 Eh    ::
         ::    -> Gsasa               -0.060150758180 Eh    ::
         ::    -> Ghb                 -0.010226751670 Eh    ::
         ::    -> Gshift               0.004953437577 Eh    ::
         :: repulsion energy           4.025396557401 Eh    ::
         :: add. restraining           0.000000000000 Eh    ::
         :: total charge              -1.999999999994 e     ::
         :::::::::::::::::::::::::::::::::::::::::::::::::::::

           -------------------------------------------------
          |                Property Printout                |
           -------------------------------------------------

    * Orbital Energies and Occupations

         #    Occupation            Energy/Eh            Energy/eV
      -------------------------------------------------------------
         1        2.0000           -0.6857213             -18.6594
       ...           ...                  ...                  ...
       227        2.0000           -0.3546446              -9.6504
       228        2.0000           -0.3460071              -9.4153
       229        2.0000           -0.3435836              -9.3494
       230        2.0000           -0.3413912              -9.2897
       231        2.0000           -0.3358098              -9.1379
       232        2.0000           -0.3300155              -8.9802
       233        2.0000           -0.3196009              -8.6968
       234        2.0000           -0.3086467              -8.3987
       235        2.0000           -0.3048334              -8.2949
       236        2.0000           -0.2674761              -7.2784
       237        2.0000           -0.2619713              -7.1286
       238        1.9968           -0.2147570              -5.8438
       239        0.4521           -0.2032089              -5.5296 (HOMO)
       240        0.2782           -0.2024886              -5.5100 (LUMO)
       241        0.2480           -0.2023406              -5.5060
       242        0.0239           -0.1998726              -5.4388
       243        0.0009           -0.1967173              -5.3530
       244        0.0001           -0.1946252              -5.2960
       245        0.0000           -0.1934380              -5.2637
       246                         -0.1873205              -5.0972
       247                         -0.1836799              -4.9982
       248                         -0.1814040              -4.9363
       249                         -0.1774300              -4.8281
       250                         -0.1736034              -4.7240
       ...                                ...                  ...
       435                          1.0352784              28.1714
      -------------------------------------------------------------
                  HL-Gap            0.0007203 Eh            0.0196 eV
             Fermi-level           -0.2063435 Eh           -5.6149 eV

     #   Z          covCN         q      C6AA      α(0)
     1   7 N        2.629    -0.381    29.849     8.114
     2   6 C        3.789     0.034    20.006     6.370
     3   6 C        2.763     0.254    22.722     7.806
     4   8 O        0.858    -0.516    24.134     6.587
     5   6 C        3.819    -0.067    21.760     6.639
     6   6 C        3.817    -0.098    22.358     6.730
     7   6 C        2.748     0.290    22.079     7.694
     8   8 O        0.861    -0.503    23.839     6.546
     9   7 N        2.646    -0.301    27.742     7.823
    10   7 N        2.687    -0.173    24.751     7.389
    11   6 C        3.799     0.033    20.020     6.371
    12   6 C        2.765     0.160    24.532     8.111
    13   8 O        0.856    -0.457    22.853     6.409
    14   6 C        3.815    -0.073    21.891     6.659
    15   6 C        2.964    -0.001    28.046     8.687
    16   6 C        2.926    -0.049    29.210     8.863
    17   6 C        2.922    -0.053    29.309     8.878
    18   6 C        2.914    -0.037    28.909     8.817
    19   6 C        2.916    -0.049    29.214     8.863
    20   6 C        2.918    -0.050    29.241     8.868
    21   7 N        2.628    -0.363    29.371     8.049
    22   6 C        3.786     0.038    19.951     6.362
    23   6 C        2.760     0.161    24.514     8.108
    24   8 O        0.856    -0.470    23.142     6.450
    25   6 C        3.855    -0.005    20.639     6.461
    26   6 C        3.769    -0.101    22.473     6.756
    27   6 C        3.772    -0.087    22.185     6.712
    28   7 N        2.636    -0.362    29.329     8.043
    29   6 C        3.788     0.025    20.167     6.396
    30   6 C        2.769     0.268    22.481     7.765
    31   8 O        0.858    -0.484    23.442     6.491
    32   6 C        3.681     0.072    19.581     6.337
    33   8 O        1.653    -0.481    22.479     6.400
    34   7 N        2.691    -0.160    24.469     7.347
    35   6 C        3.804     0.016    20.303     6.415
    36   6 C        2.754     0.262    22.584     7.782
    37   8 O        0.858    -0.504    23.867     6.550
    38   6 C        3.806    -0.079    21.999     6.677
    39   6 C        3.850    -0.016    20.834     6.492
    40   6 C        3.759    -0.119    22.827     6.811
    41   6 C        3.760    -0.119    22.833     6.812
    42   7 N        2.697    -0.218    25.758     7.538
    43   6 C        3.800     0.040    19.902     6.352
    44   6 C        2.759     0.272    22.397     7.750
    45   8 O        0.860    -0.517    24.171     6.592
    46   6 C        3.820    -0.056    21.569     6.609
    47   6 C        3.095     0.003    27.836     8.647
    48   7 N        1.998    -0.462    33.123     8.536
    49   6 C        3.056    -0.041    28.967     8.826
    50   6 C        2.101    -0.220    37.308     9.869
    51   7 N        2.854    -0.147    24.164     7.301
    52   7 N        2.770    -0.089    22.984     7.120
    53   6 C        3.826     0.027    20.105     6.380
    54   6 C        2.755     0.264    22.546     7.775
    55   8 O        0.858    -0.506    23.914     6.556
    56   6 C        3.843    -0.067    21.743     6.633
    57   6 C        3.856    -0.065    21.709     6.627
    58   6 C        3.769     0.007    20.496     6.452
    59   7 N        2.687    -0.173    24.754     7.389
    60   6 C        3.801     0.027    20.128     6.388
    61   6 C        2.755     0.274    22.368     7.745
    62   8 O        0.858    -0.494    23.656     6.521
    63   6 C        3.822    -0.076    21.937     6.665
    64   6 C        3.852    -0.008    20.693     6.470
    65   6 C        3.758    -0.118    22.816     6.810
    66   6 C        3.772    -0.109    22.621     6.777
    67   7 N        2.684    -0.179    24.876     7.408
    68   6 C        3.797     0.027    20.122     6.387
    69   6 C        2.757     0.266    22.514     7.770
    70   8 O        0.858    -0.516    24.131     6.586
    71   6 C        3.812    -0.066    21.748     6.638
    72   6 C        3.853    -0.012    20.749     6.479
    73   6 C        3.760    -0.111    22.669     6.787
    74   6 C        3.764    -0.114    22.729     6.796
    75   7 N        2.688    -0.176    24.822     7.399
    76   6 C        3.793     0.036    19.984     6.366
    77   6 C        2.765     0.143    24.870     8.167
    78   8 O        0.856    -0.469    23.111     6.445
    79   6 C        3.805    -0.062    21.684     6.629
    80   6 C        3.807    -0.092    22.243     6.714
    81   6 C        2.741     0.283    22.207     7.716
    82   8 O        0.858    -0.512    24.053     6.575
    83   7 N        2.639    -0.265    26.866     7.698
    84   1 H        0.980     0.003     2.997     2.705
    85   1 H        0.980     0.010     2.883     2.653
    86   1 H        0.980     0.014     2.823     2.626
    87   1 H        0.980     0.003     2.992     2.703
    88   1 H        0.980     0.000     3.042     2.726
    89   1 H        0.980     0.001     3.029     2.720
    90   1 H        0.860     0.156     1.361     1.828
    91   1 H        0.860     0.163     1.319     1.799
    92   1 H        0.927     0.032     2.559     2.502
    93   1 H        0.927     0.047     2.356     2.400
    94   1 H        0.927     0.060     2.197     2.318
    95   1 H        0.927     0.074     2.043     2.235
    96   1 H        0.927     0.068     2.104     2.268
    97   1 H        0.861     0.212     1.045     1.601
    98   1 H        0.861     0.248     0.893     1.480
    99   1 H        0.861     0.210     1.058     1.611
   100   1 H        0.927     0.067     2.121     2.277
   101   1 H        0.929     0.001     3.044     2.728
   102   1 H        0.927     0.058     2.224     2.332
   103   1 H        0.926     0.054     2.271     2.357
   104   1 H        0.929     0.032     2.561     2.503
   105   1 H        0.929     0.035     2.521     2.483
   106   1 H        0.929     0.028     2.620     2.531
   107   1 H        0.929     0.035     2.519     2.482
   108   1 H        0.929     0.027     2.629     2.536
   109   1 H        0.860     0.137     1.494     1.915
   110   1 H        0.860     0.152     1.386     1.845
   111   1 H        0.927     0.011     2.877     2.652
   112   1 H        0.929     0.020     2.734     2.585
   113   1 H        0.927     0.036     2.507     2.476
   114   1 H        0.927     0.044     2.400     2.422
   115   1 H        0.927     0.025     2.658     2.550
   116   1 H        0.927     0.038     2.472     2.459
   117   1 H        0.927     0.025     2.658     2.549
   118   1 H        0.927     0.035     2.514     2.480
   119   1 H        0.926     0.034     2.529     2.487
   120   1 H        0.860     0.162     1.319     1.799
   121   1 H        0.860     0.161     1.330     1.806
   122   1 H        0.927     0.019     2.754     2.595
   123   1 H        0.927     0.043     2.405     2.425
   124   1 H        0.926     0.051     2.307     2.375
   125   1 H        0.804     0.341     0.610     1.227
   126   1 H        0.861     0.200     1.104     1.646
   127   1 H        0.927     0.083     1.949     2.183
   128   1 H        0.927     0.056     2.244     2.342
   129   1 H        0.927     0.059     2.215     2.327
   130   1 H        0.927     0.032     2.552     2.498
   131   1 H        0.927     0.041     2.434     2.440
   132   1 H        0.926     0.037     2.487     2.466
   133   1 H        0.927     0.047     2.352     2.398
   134   1 H        0.927     0.045     2.384     2.415
   135   1 H        0.926     0.049     2.329     2.387
   136   1 H        0.927     0.041     2.433     2.439
   137   1 H        0.862     0.234     0.947     1.524
   138   1 H        0.926     0.043     2.405     2.425
   139   1 H        0.927     0.027     2.625     2.534
   140   1 H        0.927     0.016     2.800     2.617
   141   1 H        0.929    -0.068     4.548     3.335
   142   1 H        0.927     0.076     2.022     2.223
   143   1 H        0.927     0.065     2.143     2.289
   144   1 H        0.927     0.061     2.185     2.312
   145   1 H        0.927     0.058     2.217     2.329
   146   1 H        0.927     0.061     2.182     2.310
   147   1 H        0.927     0.065     2.144     2.289
   148   1 H        0.927     0.053     2.277     2.360
   149   1 H        0.861     0.227     0.978     1.549
   150   1 H        0.927     0.077     2.012     2.218
   151   1 H        0.927     0.059     2.212     2.326
   152   1 H        0.927     0.068     2.112     2.273
   153   1 H        0.927     0.025     2.656     2.549
   154   1 H        0.926     0.042     2.421     2.433
   155   1 H        0.927     0.040     2.443     2.444
   156   1 H        0.927     0.041     2.438     2.442
   157   1 H        0.927     0.045     2.386     2.416
   158   1 H        0.927     0.042     2.420     2.433
   159   1 H        0.927     0.036     2.502     2.473
   160   1 H        0.861     0.203     1.089     1.635
   161   1 H        0.927     0.081     1.969     2.194
   162   1 H        0.926     0.056     2.249     2.345
   163   1 H        0.927     0.047     2.361     2.403
   164   1 H        0.927     0.032     2.553     2.498
   165   1 H        0.927     0.045     2.378     2.412
   166   1 H        0.927     0.029     2.601     2.522
   167   1 H        0.926     0.048     2.347     2.396
   168   1 H        0.927     0.044     2.398     2.421
   169   1 H        0.927     0.041     2.435     2.440
   170   1 H        0.927     0.039     2.466     2.456
   171   1 H        0.861     0.215     1.031     1.590
   172   1 H        0.927     0.064     2.150     2.293
   173   1 H        0.929     0.068     2.109     2.271
   174   1 H        0.927     0.056     2.245     2.343
   175   1 H        0.927     0.064     2.149     2.292
   176   1 H        0.927     0.073     2.050     2.239
   177   1 H        0.927     0.054     2.275     2.358
   178   1 H        0.861     0.210     1.057     1.611
   179   1 H        0.861     0.229     0.967     1.541
   180   1 H        0.980    -0.000     3.053     2.730
   181   1 H        0.980    -0.004     3.112     2.757
   182   1 H        0.980    -0.014     3.301     2.839
   183   1 H        0.980    -0.005     3.137     2.768
   184   1 H        0.980    -0.002     3.080     2.742
   185   1 H        0.980    -0.002     3.077     2.741
   186   1 H        0.858     0.089     1.903     2.161

 Mol. C6AA /au·bohr⁶  :     308399.525410
 Mol. C8AA /au·bohr⁸  :    6715441.145366
 Mol. α(0) /au        :        836.022729


Wiberg/Mayer (AO) data.
largest (>0.10) Wiberg bond orders for each atom

 ---------------------------------------------------------------------------
     #   Z sym  total        # sym  WBO       # sym  WBO       # sym  WBO
 ---------------------------------------------------------------------------
     1   7 N    2.980 --     2 C    1.004    90 H    0.963    91 H    0.958
     2   6 C    3.986 --     1 N    1.004     5 C    0.975    92 H    0.965
                             3 C    0.953
     3   6 C    3.937 --     4 O    1.598    10 N    1.311     2 C    0.953
     4   8 O    1.915 --     3 C    1.598    10 N    0.196
     5   6 C    3.992 --     6 C    0.996    94 H    0.976     2 C    0.975
                            93 H    0.964
     6   6 C    3.993 --     5 C    0.996    95 H    0.973     7 C    0.972
                            96 H    0.954
     7   6 C    3.942 --     8 O    1.636     9 N    1.302     6 C    0.972
     8   8 O    1.927 --     7 C    1.636     9 N    0.191
     9   7 N    3.387 --     7 C    1.302    97 H    0.899    98 H    0.831
                             8 O    0.191
    10   7 N    3.470 --     3 C    1.311    11 C    0.965    99 H    0.923
                             4 O    0.196
    11   6 C    3.956 --    12 C    0.974    10 N    0.965    14 C    0.952
                           100 H    0.951
    12   6 C    3.694 --    13 O    1.695    11 C    0.974   101 H    0.952
    13   8 O    1.830 --    12 C    1.695
    14   6 C    3.982 --    15 C    1.016   103 H    0.970   102 H    0.969
                            11 C    0.952
    15   6 C    3.958 --    17 C    1.403    16 C    1.386    14 C    1.016
    16   6 C    3.974 --    18 C    1.446    15 C    1.386   104 H    0.974
                            19 C    0.109
    17   6 C    3.986 --    19 C    1.451    15 C    1.403   105 H    0.972
                            18 C    0.106
    18   6 C    3.990 --    16 C    1.446    20 C    1.438   106 H    0.975
                            17 C    0.106
    19   6 C    3.974 --    17 C    1.451    20 C    1.412   107 H    0.976
                            16 C    0.109
    20   6 C    3.948 --    18 C    1.438    19 C    1.412   108 H    0.975
    21   7 N    2.982 --    22 C    1.002   109 H    0.969   110 H    0.952
    22   6 C    3.983 --    21 N    1.002    23 C    0.981   111 H    0.964
                            25 C    0.953
    23   6 C    3.692 --    24 O    1.705    22 C    0.981   112 H    0.958
    24   8 O    1.821 --    23 C    1.705
    25   6 C    3.985 --    27 C    1.013    26 C    1.010   113 H    0.967
                            22 C    0.953
    26   6 C    3.996 --    25 C    1.010   116 H    0.984   115 H    0.984
                           114 H    0.978
    27   6 C    3.998 --    25 C    1.013   117 H    0.982   119 H    0.978
                           118 H    0.977
    28   7 N    2.994 --    29 C    1.021   121 H    0.960   120 H    0.959
    29   6 C    3.991 --    28 N    1.021    32 C    0.966   122 H    0.956
                            30 C    0.945
    30   6 C    3.946 --    31 O    1.640    34 N    1.293    29 C    0.945
    31   8 O    1.949 --    30 C    1.640    34 N    0.194
    32   6 C    3.963 --    33 O    1.006   124 H    0.972   123 H    0.969
                            29 C    0.966
    33   8 O    1.930 --    32 C    1.006   125 H    0.870
    34   7 N    3.474 --    30 C    1.293    35 C    0.989   126 H    0.926
                            31 O    0.194
    35   6 C    3.964 --    34 N    0.989    38 C    0.971    36 C    0.932
                           127 H    0.920
    36   6 C    3.928 --    37 O    1.614    42 N    1.299    35 C    0.932
    37   8 O    1.929 --    36 C    1.614    42 N    0.189
    38   6 C    3.985 --    39 C    0.989   129 H    0.972    35 C    0.971
                           128 H    0.970
    39   6 C    3.994 --    40 C    1.010    41 C    1.008    38 C    0.989
                           130 H    0.971
    40   6 C    3.996 --    39 C    1.010   131 H    0.987   133 H    0.985
                           132 H    0.985
    41   6 C    3.993 --    39 C    1.008   134 H    0.987   135 H    0.985
                           136 H    0.983
    42   7 N    3.439 --    36 C    1.299    43 C    0.974   137 H    0.841
                            37 O    0.189
    43   6 C    3.965 --    42 N    0.974    46 C    0.968   138 H    0.948
                            44 C    0.936
    44   6 C    3.948 --    45 O    1.574    52 N    1.329    43 C    0.936
    45   8 O    1.931 --    44 C    1.574    52 N    0.190
    46   6 C    3.983 --    47 C    0.991   140 H    0.971   139 H    0.969
                            43 C    0.968
    47   6 C    3.959 --    49 C    1.569    48 N    1.237    46 C    0.991
    48   7 N    2.954 --    50 C    1.477    47 C    1.237
    49   6 C    3.936 --    47 C    1.569    51 N    1.161   141 H    0.966
                            50 C    0.110
    50   6 C    2.900 --    48 N    1.477    51 N    1.242    49 C    0.110
    51   7 N    3.506 --    50 C    1.242    49 C    1.161   186 H    0.956
    52   7 N    3.532 --    44 C    1.329    53 C    0.962    58 C    0.961
                            45 O    0.190
    53   6 C    3.962 --    56 C    0.980    52 N    0.962   142 H    0.951
                            54 C    0.940
    54   6 C    3.953 --    55 O    1.602    59 N    1.327    53 C    0.940
    55   8 O    1.936 --    54 C    1.602    59 N    0.200
    56   6 C    3.989 --    57 C    0.998    53 C    0.980   143 H    0.977
                           144 H    0.976
    57   6 C    3.994 --    58 C    1.018    56 C    0.998   145 H    0.977
                           146 H    0.973
    58   6 C    3.965 --    57 C    1.018   147 H    0.964   148 H    0.961
                            52 N    0.961
    59   7 N    3.484 --    54 C    1.327    60 C    0.972   149 H    0.890
                            55 O    0.200
    60   6 C    3.964 --    63 C    0.977    59 N    0.972   150 H    0.950
                            61 C    0.947
    61   6 C    3.947 --    62 O    1.634    67 N    1.291    60 C    0.947
    62   8 O    1.941 --    61 C    1.634    67 N    0.194
    63   6 C    3.987 --    64 C    0.996    60 C    0.977   152 H    0.971
                           151 H    0.969
    64   6 C    3.995 --    66 C    1.012    65 C    1.001    63 C    0.996
                           153 H    0.971
    65   6 C    3.996 --    64 C    1.001   154 H    0.988   156 H    0.988
                           155 H    0.984
    66   6 C    3.995 --    64 C    1.012   158 H    0.985   157 H    0.985
                           159 H    0.976
    67   7 N    3.459 --    61 C    1.291    68 C    0.970   160 H    0.923
                            62 O    0.194
    68   6 C    3.963 --    71 C    0.977    67 N    0.970    69 C    0.948
                           161 H    0.946
    69   6 C    3.947 --    70 O    1.596    75 N    1.326    68 C    0.948
    70   8 O    1.911 --    69 C    1.596    75 N    0.202
    71   6 C    3.991 --    72 C    0.996    68 C    0.977   163 H    0.971
                           162 H    0.971
    72   6 C    3.994 --    74 C    1.010    73 C    1.003    71 C    0.996
                           164 H    0.965
    73   6 C    3.994 --    72 C    1.003   165 H    0.987   167 H    0.984
                           166 H    0.966
    74   6 C    3.995 --    72 C    1.010   168 H    0.986   169 H    0.986
                           170 H    0.981
    75   7 N    3.482 --    69 C    1.326    76 C    0.967   171 H    0.901
                            70 O    0.202
    76   6 C    3.961 --    77 C    0.972    79 C    0.971    75 N    0.967
                           172 H    0.957
    77   6 C    3.679 --    78 O    1.699    76 C    0.972   173 H    0.883
    78   8 O    1.818 --    77 C    1.699
    79   6 C    3.979 --    80 C    1.004   174 H    0.977   175 H    0.971
                            76 C    0.971
    80   6 C    3.995 --    79 C    1.004    81 C    0.968   177 H    0.966
                           176 H    0.950
    81   6 C    3.943 --    82 O    1.628    83 N    1.317    80 C    0.968
    82   8 O    1.922 --    81 C    1.628    83 N    0.194
    83   7 N    3.407 --    81 C    1.317   178 H    0.931   179 H    0.926
                            82 O    0.194
    84   1 H    1.000 --   180 H    0.906
    85   1 H    1.000 --   181 H    0.975
    86   1 H    1.000 --   182 H    0.992
    87   1 H    1.000 --   183 H    0.983
    88   1 H    1.000 --   184 H    0.995
    89   1 H    1.000 --   185 H    0.998
    90   1 H    0.975 --     1 N    0.963
    91   1 H    0.973 --     1 N    0.958
    92   1 H    0.999 --     2 C    0.965
    93   1 H    0.998 --     5 C    0.964
    94   1 H    0.996 --     5 C    0.976
    95   1 H    0.994 --     6 C    0.973
    96   1 H    0.995 --     6 C    0.954
    97   1 H    0.955 --     9 N    0.899
    98   1 H    0.939 --     9 N    0.831
    99   1 H    0.955 --    10 N    0.923
   100   1 H    0.994 --    11 C    0.951
   101   1 H    0.999 --    12 C    0.952
   102   1 H    0.995 --    14 C    0.969
   103   1 H    0.997 --    14 C    0.970
   104   1 H    0.999 --    16 C    0.974
   105   1 H    0.999 --    17 C    0.972
   106   1 H    0.999 --    18 C    0.975
   107   1 H    0.999 --    19 C    0.976
   108   1 H    0.999 --    20 C    0.975
   109   1 H    0.981 --    21 N    0.969
   110   1 H    0.976 --    21 N    0.952
   111   1 H    0.999 --    22 C    0.964
   112   1 H    1.000 --    23 C    0.958
   113   1 H    0.998 --    25 C    0.967
   114   1 H    0.998 --    26 C    0.978
   115   1 H    0.999 --    26 C    0.984
   116   1 H    0.998 --    26 C    0.984
   117   1 H    0.999 --    27 C    0.982
   118   1 H    0.997 --    27 C    0.977
   119   1 H    0.999 --    27 C    0.978
   120   1 H    0.974 --    28 N    0.959
   121   1 H    0.973 --    28 N    0.960
   122   1 H    1.000 --    29 C    0.956
   123   1 H    0.998 --    32 C    0.969
   124   1 H    0.997 --    32 C    0.972
   125   1 H    0.884 --    33 O    0.870
   126   1 H    0.960 --    34 N    0.926
   127   1 H    0.993 --    35 C    0.920
   128   1 H    0.996 --    38 C    0.970
   129   1 H    0.996 --    38 C    0.972
   130   1 H    0.999 --    39 C    0.971
   131   1 H    0.998 --    40 C    0.987
   132   1 H    0.999 --    40 C    0.985
   133   1 H    0.998 --    40 C    0.985
   134   1 H    0.998 --    41 C    0.987
   135   1 H    0.997 --    41 C    0.985
   136   1 H    0.998 --    41 C    0.983
   137   1 H    0.945 --    42 N    0.841
   138   1 H    0.998 --    43 C    0.948
   139   1 H    0.999 --    46 C    0.969
   140   1 H    0.999 --    46 C    0.971
   141   1 H    0.995 --    49 C    0.966
   142   1 H    0.994 --    53 C    0.951
   143   1 H    0.995 --    56 C    0.977
   144   1 H    0.996 --    56 C    0.976
   145   1 H    0.997 --    57 C    0.977
   146   1 H    0.995 --    57 C    0.973
   147   1 H    0.996 --    58 C    0.964
   148   1 H    0.997 --    58 C    0.961
   149   1 H    0.948 --    59 N    0.890
   150   1 H    0.994 --    60 C    0.950
   151   1 H    0.997 --    63 C    0.969
   152   1 H    0.995 --    63 C    0.971
   153   1 H    0.999 --    64 C    0.971
   154   1 H    0.998 --    65 C    0.988
   155   1 H    0.998 --    65 C    0.984
   156   1 H    0.998 --    65 C    0.988
   157   1 H    0.998 --    66 C    0.985
   158   1 H    0.998 --    66 C    0.985
   159   1 H    0.999 --    66 C    0.976
   160   1 H    0.959 --    67 N    0.923
   161   1 H    0.993 --    68 C    0.946
   162   1 H    0.996 --    71 C    0.971
   163   1 H    0.998 --    71 C    0.971
   164   1 H    0.999 --    72 C    0.965
   165   1 H    0.998 --    73 C    0.987
   166   1 H    0.999 --    73 C    0.966
   167   1 H    0.997 --    73 C    0.984
   168   1 H    0.998 --    74 C    0.986
   169   1 H    0.998 --    74 C    0.986
   170   1 H    0.998 --    74 C    0.981
   171   1 H    0.953 --    75 N    0.901
   172   1 H    0.995 --    76 C    0.957
   173   1 H    0.995 --    77 C    0.883
   174   1 H    0.996 --    79 C    0.977
   175   1 H    0.996 --    79 C    0.971
   176   1 H    0.995 --    80 C    0.950
   177   1 H    0.997 --    80 C    0.966
   178   1 H    0.956 --    83 N    0.931
   179   1 H    0.947 --    83 N    0.926
   180   1 H    1.000 --    84 H    0.906
   181   1 H    1.000 --    85 H    0.975
   182   1 H    1.000 --    86 H    0.992
   183   1 H    1.000 --    87 H    0.983
   184   1 H    1.000 --    88 H    0.995
   185   1 H    1.000 --    89 H    0.998
   186   1 H    0.992 --    51 N    0.956
 ---------------------------------------------------------------------------

Topologies differ in total number of bonds
Writing topology from bond orders to xtbtopo.mol

molecular dipole:
                 x           y           z       tot (Debye)
 q only:      -32.146     -37.909     -83.410
   full:      -32.880     -39.267     -82.179     246.121
molecular quadrupole (traceless):
                xx          xy          yy          xz          yz          zz
 q only:     1590.657    -775.917    1262.530   -2054.342   -2317.420   -2853.187
  q+dip:     1555.422    -818.480    1161.402   -2081.332   -2359.275   -2716.824
   full:     1552.442    -819.016    1163.074   -2080.512   -2358.175   -2715.515


           -------------------------------------------------
          | TOTAL ENERGY             -266.271770411574 Eh   |
          | GRADIENT NORM               0.748385932873 Eh/α |
          | HOMO-LUMO GAP               0.019601680382 eV   |
           -------------------------------------------------
########################################################################
[WARNING] Runtime exception occurred
-3- restart_readRestart: Dimension missmatch in restart file.
-2- restart_readRestart: Multiplicity missmatch in restart file.
-1- restart_readRestart: Number of electron missmatch in restart file.
########################################################################

------------------------------------------------------------------------
 * finished run on 2025/05/05 at 16:38:34.306     
------------------------------------------------------------------------
 total:
 * wall-time:     0 d,  0 h,  0 min,  0.715 sec
 *  cpu-time:     0 d,  0 h,  0 min, 20.720 sec
 * ratio c/w:    28.975 speedup
 SCF:
 * wall-time:     0 d,  0 h,  0 min,  0.699 sec
 *  cpu-time:     0 d,  0 h,  0 min, 20.334 sec
 * ratio c/w:    29.074 speedup

