      -----------------------------------------------------------      
     |                   =====================                   |     
     |                           x T B                           |     
     |                   =====================                   |     
     |                         S. Grimme                         |     
     |          Mulliken Center for Theoretical Chemistry        |     
     |                    University of Bonn                     |     
      -----------------------------------------------------------      

   * xtb version 6.7.1 (edcfbbe) compiled by 'conda@afd1a870197c' on 2025-04-11

   xtb is free software: you can redistribute it and/or modify it under
   the terms of the GNU Lesser General Public License as published by
   the Free Software Foundation, either version 3 of the License, or
   (at your option) any later version.
   
   xtb is distributed in the hope that it will be useful,
   but WITHOUT ANY WARRANTY; without even the implied warranty of
   MERCHANTABILITY or FITNESS FOR A PARTICULAR PURPOSE.  See the
   GNU Lesser General Public License for more details.
   
   Cite this work as:
   * C. Bannwarth, E. Caldeweyher, S. Ehlert, A. Hansen, P. Pracht,
     J. Seibert, S. Spicher, S. Grimme, WIREs Comput. Mol. Sci., 2020, 11,
     e01493. DOI: 10.1002/wcms.1493
   
   for GFN2-xTB:
   * C. Bannwarth, S. Ehlert and S. Grimme., J. Chem. Theory Comput., 2019,
     15, 1652-1671. DOI: 10.1021/acs.jctc.8b01176
   for GFN1-xTB:
   * S. Grimme, C. Bannwarth, P. Shushkov, J. Chem. Theory Comput., 2017,
     13, 1989-2009. DOI: 10.1021/acs.jctc.7b00118
   for GFN0-xTB:
   * P. Pracht, E. Caldeweyher, S. Ehlert, S. Grimme, ChemRxiv, 2019, preprint.
     DOI: 10.26434/chemrxiv.8326202.v1
   for GFN-FF:
   * S. Spicher and S. Grimme, Angew. Chem. Int. Ed., 2020, 59, 15665-15673.
     DOI: 10.1002/anie.202004239
   
   for ALPB and GBSA implicit solvation:
   * S. Ehlert, M. Stahn, S. Spicher, S. Grimme, J. Chem. Theory Comput.,
     2021, 17, 4250-4261. DOI: 10.1021/acs.jctc.1c00471
   
   for ddCOSMO and CPCM-X implicit solvation:
   * M. Stahn, S. Ehlert, S. Grimme, J. Phys. Chem. A,
     2023, XX, XXXX-XXXX. DOI: 10.1021/acs.jpca.3c04382
   
   for DFT-D4:
   * E. Caldeweyher, C. Bannwarth and S. Grimme, J. Chem. Phys., 2017,
     147, 034112. DOI: 10.1063/1.4993215
   * E. Caldeweyher, S. Ehlert, A. Hansen, H. Neugebauer, S. Spicher,
     C. Bannwarth and S. Grimme, J. Chem. Phys., 2019, 150, 154122.
     DOI: 10.1063/1.5090222
   * E. Caldeweyher, J.-M. Mewes, S. Ehlert and S. Grimme, Phys. Chem. Chem. Phys.
     2020, 22, 8499-8512. DOI: 10.1039/D0CP00502A
   
   for sTDA-xTB:
   * S. Grimme and C. Bannwarth, J. Chem. Phys., 2016, 145, 054103.
     DOI: 10.1063/1.4959605
   
   in the mass-spec context:
   * V. Asgeirsson, C. Bauer and S. Grimme, Chem. Sci., 2017, 8, 4879.
     DOI: 10.1039/c7sc00601b
   * J. Koopman and S. Grimme, ACS Omega 2019, 4, 12, 15120-15133.
     DOI: 10.1021/acsomega.9b02011
   
   for metadynamics refer to:
   * S. Grimme, J. Chem. Theory Comput., 2019, 155, 2847-2862
     DOI: 10.1021/acs.jctc.9b00143
   
   for SPH calculations refer to:
   * S. Spicher and S. Grimme, J. Chem. Theory Comput., 2021, 17, 1701-1714
     DOI: 10.1021/acs.jctc.0c01306
   
   for ONIOM refer to:
   * C. Plett, A. Katbashev, S. Ehlert, S. Grimme, M. Bursch,
     Phys. Chem. Chem. Phys., 2023, 25, 17860-17868. DOI: 10.1039/D3CP02178E
   
   for DIPRO refer to:
   * J. Kohn, N. Gildemeister, S. Grimme, D. Fazzi, A. Hansen,
     J. Chem. Phys., 2023, just accepted.
   
   for PTB refer to:
   * S. Grimme, M. Mueller, A. Hansen, J. Chem. Phys., 2023, 158, 124111.
     DOI: 10.1063/5.0137838
   
   with help from (in alphabetical order)
   P. Atkinson, C. Bannwarth, F. Bohle, G. Brandenburg, E. Caldeweyher
   M. Checinski, S. Dohm, S. Ehlert, S. Ehrlich, I. Gerasimov, C. Hölzer
   A. Katbashev, J. Kohn, J. Koopman, C. Lavigne, S. Lehtola, F. März, M. Müller,
   F. Musil, H. Neugebauer, J. Pisarek, C. Plett, P. Pracht, F. Pultar,
   J. Seibert, P. Shushkov, S. Spicher, M. Stahn, M. Steiner, T. Strunk,
   J. Stückrath, T. Rose, and J. Unsleber
   
 * started run on 2025/05/05 at 16:51:58.726     
   ID    Z sym.   atoms
    1    7 N      1, 6, 14, 21, 27, 30, 31, 38, 44, 56, 63, 64, 72, 80, 92,
                  100
    2    6 C      2, 3, 5, 7, 8, 10-13, 15, 16, 18-20, 22, 23, 25, 26, 28,
                  29, 32, 33, 35-37, 39, 40, 42, 45, 46, 48-54, 57, 58, 60,
                  61, 65, 66, 68-71, 73, 74, 76, 77, 79, 81, 82, 84-90, 93,
                  94, 96-99, 101-105
    3    8 O      4, 9, 17, 24, 34, 41, 43, 47, 55, 59, 62, 67, 75, 83, 91, 95
    4   16 S      78
    5    1 H      106-215

           -------------------------------------------------
          |                Calculation Setup                |
           -------------------------------------------------

          program call               : xtb /tmp/tmpb_e9x9yp/HID/input.xyz --alpb ether --chrg 0 --input /tmp/tmpb_e9x9yp/HID/constraints.inp --gfn 2
          hostname                   : fedora
          coordinate file            : /tmp/tmpb_e9x9yp/HID/input.xyz
          omp threads                :                    32


molecular fragmentation (1/2 indicates fragments):
111112222222222222222222222222222222222222222222222222222222222222222222
222222222222222222222222222222222111111122222222222222222222222222222222
22222222222222222222222222222222222222222222222222222222222222222222222
# atoms in fragment 1/2:    12   203
 fragment masses (1/2) :       73.09     1414.72
CMA distance (Bohr)    :  13.057
constraining FC (au)   :  0.0500

           -------------------------------------------------
          |                 G F N 2 - x T B                 |
           -------------------------------------------------

        Reference                      10.1021/acs.jctc.8b01176
      * Hamiltonian:
        H0-scaling (s, p, d)           1.850000    2.230000    2.230000
        zeta-weighting                 0.500000
      * Dispersion:
        s8                             2.700000
        a1                             0.520000
        a2                             5.000000
        s9                             5.000000
      * Repulsion:
        kExp                           1.500000    1.000000
        rExp                           1.000000
      * Coulomb:
        alpha                          2.000000
        third order                    shell-resolved
        anisotropic                    true
        a3                             3.000000
        a5                             4.000000
        cn-shift                       1.200000
        cn-exp                         4.000000
        max-rad                        5.000000

      * Solvation model:               ALPB
        Solvent                        ether
        Parameter file                 internal GFN2-xTB/ALPB
        Dielectric constant                4.3300E+00
        Reference state                gsolv [1 M gas/solution]
        Free energy shift                  4.9534E-03 Eh       3.1083E+00 kcal/mol
        Temperature                        2.9815E+02 K
        Density                            7.1300E-01 kg/L
        Solvent mass                       7.4120E+01 g/mol
        Interaction kernel             P16
        Born radius scaling (c1)           1.5847E+00
        Born radii integrator          GBOBC
        Born offset                        0.0000E+00 a0       0.0000E+00 AA
        H-bond correction              true
        Ion screening                  false
        Surface tension                    1.0000E-05 Eh       1.5569E+01 dyn/cm
        Grid points                               230 per atom

          ...................................................
          :                      SETUP                      :
          :.................................................:
          :  # basis functions                 536          :
          :  # atomic orbitals                 535          :
          :  # shells                          321          :
          :  # electrons                       580          :
          :  max. iterations                   250          :
          :  Hamiltonian                  GFN2-xTB          :
          :  restarted?                      false          :
          :  GBSA solvation                   true          :
          :  PC potential                    false          :
          :  electronic temp.          300.0000000     K    :
          :  accuracy                    1.0000000          :
          :  -> integral cutoff          0.2500000E+02      :
          :  -> integral neglect         0.1000000E-07      :
          :  -> SCF convergence          0.1000000E-05 Eh   :
          :  -> wf. convergence          0.1000000E-03 e    :
          :  Broyden damping             0.4000000          :
          :  net charge                          0          :
          :  unpaired electrons                  0          :
          ...................................................

 iter      E             dE          RMSdq      gap      omega  full diag
   1   -328.2617566 -0.328262E+03  0.433E+00    1.53       0.0  T
   2   -328.2691543 -0.739773E-02  0.273E+00    0.33       1.0  T
   3   -328.6403606 -0.371206E+00  0.220E+00    1.41       1.0  T
   4   -329.2061164 -0.565756E+00  0.102E+00    1.38       1.0  T
   5   -328.9941799  0.211937E+00  0.889E-01    0.06       1.0  T
   6   -329.1962523 -0.202072E+00  0.639E-01    1.33       1.0  T
   7   -329.2199514 -0.236991E-01  0.542E-01    1.03       1.0  T
   8   -329.2338321 -0.138806E-01  0.464E-01    0.61       1.0  T
   9   -328.7692386  0.464593E+00  0.121E+00    0.20       1.0  T
  10   -329.2390163 -0.469778E+00  0.419E-01    0.40       1.0  T
  11   -329.2495256 -0.105094E-01  0.359E-01    0.22       1.0  T
  12   -329.2817514 -0.322258E-01  0.173E-01    0.11       1.0  T
  13   -329.2917820 -0.100307E-01  0.498E-03    0.07       1.4  T
  14   -329.2917506  0.314778E-04  0.107E-02    0.07       1.0  T
  15   -329.2917423  0.829026E-05  0.115E-02    0.07       1.0  T
  16   -329.2912964  0.445877E-03  0.378E-02    0.06       1.0  T
  17   -329.2915788 -0.282377E-03  0.246E-02    0.07       1.0  T
  18   -329.2917805 -0.201758E-03  0.366E-03    0.07       1.9  T
  19   -329.2917843 -0.377075E-05  0.153E-03    0.07       4.5  T
  20   -329.2917835  0.818711E-06  0.217E-03    0.07       3.1  T
  21   -329.2917845 -0.100795E-05  0.133E-03    0.07       5.1  T
  22   -329.2917851 -0.603400E-06  0.327E-05    0.07     208.5  T
  23   -329.2917851  0.290873E-08  0.976E-05    0.07      69.9  T

   *** convergence criteria satisfied after 23 iterations ***

         #    Occupation            Energy/Eh            Energy/eV
      -------------------------------------------------------------
         1        2.0000           -0.7434294             -20.2297
       ...           ...                  ...                  ...
       284        2.0000           -0.3726968             -10.1416
       285        2.0000           -0.3668455              -9.9824
       286        2.0000           -0.3655799              -9.9479
       287        2.0000           -0.3580392              -9.7427
       288        2.0000           -0.3376601              -9.1882
       289        2.0000           -0.3336280              -9.0785
       290        1.5711           -0.3101676              -8.4401 (HOMO)
       291        0.4152           -0.3076615              -8.3719 (LUMO)
       292        0.0109           -0.3039857              -8.2719
       293        0.0029           -0.3027180              -8.2374
       294                         -0.2900338              -7.8922
       295                         -0.2802310              -7.6255
       ...                                ...                  ...
       535                         11.8896032             323.5326
      -------------------------------------------------------------
                  HL-Gap            0.0025061 Eh            0.0682 eV
             Fermi-level           -0.3089342 Eh           -8.4065 eV

 SCC (total)                   0 d,  0 h,  0 min,  1.355 sec
 SCC setup                      ...        0 min,  0.003 sec (  0.238%)
 Dispersion                     ...        0 min,  0.008 sec (  0.591%)
 classical contributions        ...        0 min,  0.000 sec (  0.028%)
 integral evaluation            ...        0 min,  0.019 sec (  1.430%)
 iterations                     ...        0 min,  1.274 sec ( 94.066%)
 molecular gradient             ...        0 min,  0.047 sec (  3.458%)
 printout                       ...        0 min,  0.003 sec (  0.187%)

         :::::::::::::::::::::::::::::::::::::::::::::::::::::
         ::                     SUMMARY                     ::
         :::::::::::::::::::::::::::::::::::::::::::::::::::::
         :: total energy            -323.664772093256 Eh    ::
         :: total w/o Gsasa/hb      -323.583814947049 Eh    ::
         :: gradient norm              6.060818741671 Eh/a0 ::
         :: HOMO-LUMO gap              0.068193303692 eV    ::
         ::.................................................::
         :: SCC energy              -329.265179450757 Eh    ::
         :: -> isotropic ES            0.753544787013 Eh    ::
         :: -> anisotropic ES          0.031740310586 Eh    ::
         :: -> anisotropic XC          0.137806607911 Eh    ::
         :: -> dispersion             -0.287665674108 Eh    ::
         :: -> Gsolv                  -0.173419181182 Eh    ::
         ::    -> Gelec               -0.092462034975 Eh    ::
         ::    -> Gsasa               -0.067310774289 Eh    ::
         ::    -> Ghb                 -0.018599809496 Eh    ::
         ::    -> Gshift               0.004953437577 Eh    ::
         :: repulsion energy           5.600407357501 Eh    ::
         :: add. restraining           0.000000000000 Eh    ::
         :: total charge              -0.000000000000 e     ::
         :::::::::::::::::::::::::::::::::::::::::::::::::::::

           -------------------------------------------------
          |                Property Printout                |
           -------------------------------------------------

    * Orbital Energies and Occupations

         #    Occupation            Energy/Eh            Energy/eV
      -------------------------------------------------------------
         1        2.0000           -0.7434294             -20.2297
       ...           ...                  ...                  ...
       278        2.0000           -0.3832200             -10.4279
       279        2.0000           -0.3788553             -10.3092
       280        2.0000           -0.3768955             -10.2558
       281        2.0000           -0.3767044             -10.2506
       282        2.0000           -0.3765757             -10.2471
       283        2.0000           -0.3736993             -10.1689
       284        2.0000           -0.3726968             -10.1416
       285        2.0000           -0.3668455              -9.9824
       286        2.0000           -0.3655799              -9.9479
       287        2.0000           -0.3580392              -9.7427
       288        2.0000           -0.3376601              -9.1882
       289        2.0000           -0.3336280              -9.0785
       290        1.5711           -0.3101676              -8.4401 (HOMO)
       291        0.4152           -0.3076615              -8.3719 (LUMO)
       292        0.0109           -0.3039857              -8.2719
       293        0.0029           -0.3027180              -8.2374
       294                         -0.2900338              -7.8922
       295                         -0.2802310              -7.6255
       296                         -0.2769999              -7.5376
       297                         -0.2725711              -7.4170
       298                         -0.2435620              -6.6277
       299                         -0.2415394              -6.5726
       300                         -0.2275810              -6.1928
       301                         -0.2224592              -6.0534
       ...                                ...                  ...
       535                         11.8896032             323.5326
      -------------------------------------------------------------
                  HL-Gap            0.0025061 Eh            0.0682 eV
             Fermi-level           -0.3089342 Eh           -8.4065 eV

     #   Z          covCN         q      C6AA      α(0)
     1   7 N        2.635    -0.363    29.374     8.049
     2   6 C        3.774     0.049    19.780     6.337
     3   6 C        2.752     0.189    23.944     8.013
     4   8 O        0.856    -0.356    20.814     6.117
     5   6 C        3.761    -0.121    22.861     6.816
     6   7 N        2.627    -0.373    29.625     8.084
     7   6 C        3.797     0.018    20.275     6.411
     8   6 C        2.758     0.287    22.139     7.705
     9   8 O        0.863    -0.494    23.641     6.519
    10   6 C        3.850    -0.028    21.043     6.525
    11   6 C        3.805    -0.065    21.745     6.639
    12   6 C        3.748    -0.115    22.763     6.805
    13   6 C        3.755    -0.115    22.755     6.802
    14   7 N        2.693    -0.183    24.960     7.420
    15   6 C        3.796     0.018    20.282     6.413
    16   6 C        2.766     0.266    22.516     7.771
    17   8 O        0.857    -0.513    24.075     6.578
    18   6 C        3.857    -0.015    20.810     6.488
    19   6 C        3.762    -0.123    22.913     6.824
    20   6 C        3.759    -0.123    22.904     6.823
    21   7 N        2.692    -0.164    24.554     7.359
    22   6 C        3.803     0.031    20.059     6.376
    23   6 C        2.751     0.271    22.416     7.753
    24   8 O        0.859    -0.485    23.463     6.494
    25   6 C        3.808    -0.077    21.973     6.673
    26   6 C        3.042    -0.018    28.429     8.745
    27   7 N        2.762    -0.153    24.304     7.322
    28   6 C        2.973    -0.004    28.108     8.696
    29   6 C        2.043    -0.102    33.810     9.392
    30   7 N        1.918    -0.369    30.460     8.183
    31   7 N        2.744    -0.109    23.392     7.183
    32   6 C        3.800     0.018    20.277     6.411
    33   6 C        2.748     0.276    22.326     7.737
    34   8 O        0.858    -0.497    23.729     6.531
    35   6 C        3.828    -0.066    21.747     6.635
    36   6 C        3.805    -0.069    21.824     6.651
    37   6 C        3.746    -0.010    20.826     6.510
    38   7 N        2.682    -0.213    25.640     7.520
    39   6 C        3.790     0.017    20.295     6.416
    40   6 C        2.769     0.262    22.587     7.783
    41   8 O        0.859    -0.488    23.522     6.503
    42   6 C        3.680     0.068    19.638     6.347
    43   8 O        1.644    -0.484    22.546     6.410
    44   7 N        2.690    -0.154    24.331     7.326
    45   6 C        3.804     0.044    19.834     6.340
    46   6 C        2.766     0.203    23.688     7.971
    47   8 O        0.855    -0.368    21.052     6.152
    48   6 C        3.809    -0.075    21.925     6.665
    49   6 C        2.951    -0.008    28.212     8.712
    50   6 C        2.927    -0.048    29.184     8.859
    51   6 C        2.923    -0.046    29.134     8.852
    52   6 C        2.915    -0.072    29.806     8.953
    53   6 C        2.914    -0.057    29.410     8.893
    54   6 C        2.862     0.144    24.857     8.172
    55   8 O        1.658    -0.473    22.323     6.378
    56   7 N        2.626    -0.369    29.531     8.071
    57   6 C        3.775     0.032    20.058     6.381
    58   6 C        2.763     0.184    24.045     8.030
    59   8 O        0.855    -0.353    20.771     6.110
    60   6 C        3.800    -0.098    22.374     6.735
    61   6 C        2.736     0.273    22.386     7.746
    62   8 O        0.859    -0.538    24.637     6.655
    63   7 N        2.652    -0.288    27.441     7.780
    64   7 N        2.634    -0.356    29.176     8.022
    65   6 C        3.791     0.031    20.054     6.378
    66   6 C        2.761     0.258    22.650     7.794
    67   8 O        0.856    -0.514    24.099     6.582
    68   6 C        3.849    -0.020    20.903     6.503
    69   6 C        3.808    -0.064    21.728     6.635
    70   6 C        3.762    -0.109    22.620     6.780
    71   6 C        3.757    -0.114    22.735     6.798
    72   7 N        2.690    -0.164    24.557     7.360
    73   6 C        3.791     0.029    20.090     6.383
    74   6 C        2.765     0.196    23.824     7.994
    75   8 O        0.856    -0.364    20.979     6.141
    76   6 C        3.822    -0.061    21.663     6.624
    77   6 C        3.799    -0.014    20.837     6.499
    78  16 S        1.960    -0.222   150.536    20.650
    79   6 C        3.753    -0.056    21.638     6.633
    80   7 N        2.628    -0.378    29.775     8.104
    81   6 C        3.787     0.034    20.022     6.373
    82   6 C        2.771     0.211    23.539     7.946
    83   8 O        0.861    -0.356    20.826     6.119
    84   6 C        3.807    -0.068    21.803     6.647
    85   6 C        2.957    -0.001    28.049     8.687
    86   6 C        2.914    -0.049    29.225     8.865
    87   6 C        2.915    -0.046    29.146     8.853
    88   6 C        2.914    -0.076    29.901     8.967
    89   6 C        2.919    -0.063    29.579     8.919
    90   6 C        2.833     0.138    24.975     8.189
    91   8 O        1.659    -0.504    22.983     6.472
    92   7 N        2.630    -0.370    29.539     8.072
    93   6 C        3.784     0.045    19.834     6.344
    94   6 C        2.767     0.199    23.768     7.984
    95   8 O        0.856    -0.348    20.669     6.095
    96   6 C        4.738    -0.206    24.467     7.025
    97   6 C        3.943    -0.076    21.877     6.647
    98   6 C        3.045     0.025    27.408     8.586
    99   6 C        3.103    -0.029    28.593     8.762
   100   7 N        1.910    -0.323    29.212     8.013
   101   6 C        3.078     0.080    26.131     8.381
   102   6 C        2.913    -0.038    28.948     8.823
   103   6 C        3.832    -0.062    21.658     6.621
   104   6 C        2.913    -0.046    29.152     8.854
   105   6 C        2.923    -0.029    28.722     8.789
   106   1 H        0.860     0.153     1.381     1.841
   107   1 H        0.860     0.152     1.385     1.843
   108   1 H        0.927     0.035     2.513     2.479
   109   1 H        0.929     0.075     2.032     2.229
   110   1 H        0.926     0.057     2.233     2.337
   111   1 H        0.927     0.076     2.024     2.225
   112   1 H        0.927     0.052     2.296     2.370
   113   1 H        0.860     0.163     1.314     1.796
   114   1 H        0.860     0.149     1.406     1.857
   115   1 H        0.926     0.038     2.470     2.458
   116   1 H        0.927     0.038     2.470     2.457
   117   1 H        0.927     0.037     2.486     2.466
   118   1 H        0.927     0.038     2.472     2.458
   119   1 H        0.927     0.040     2.445     2.445
   120   1 H        0.927     0.034     2.533     2.489
   121   1 H        0.927     0.048     2.339     2.392
   122   1 H        0.927     0.038     2.478     2.462
   123   1 H        0.927     0.041     2.438     2.442
   124   1 H        0.927     0.043     2.405     2.425
   125   1 H        0.861     0.206     1.076     1.625
   126   1 H        0.927     0.081     1.964     2.192
   127   1 H        0.927     0.047     2.354     2.399
   128   1 H        0.927     0.053     2.287     2.365
   129   1 H        0.927     0.051     2.309     2.376
   130   1 H        0.927     0.051     2.310     2.377
   131   1 H        0.927     0.048     2.346     2.395
   132   1 H        0.926     0.058     2.218     2.329
   133   1 H        0.927     0.045     2.386     2.415
   134   1 H        0.861     0.233     0.954     1.530
   135   1 H        0.927     0.053     2.279     2.361
   136   1 H        0.926     0.056     2.242     2.342
   137   1 H        0.927     0.067     2.114     2.274
   138   1 H        0.929    -0.009     3.210     2.802
   139   1 H        0.927     0.077     2.010     2.217
   140   1 H        0.927     0.066     2.127     2.280
   141   1 H        0.927     0.059     2.211     2.325
   142   1 H        0.927     0.065     2.141     2.288
   143   1 H        0.927     0.065     2.136     2.286
   144   1 H        0.927     0.063     2.169     2.303
   145   1 H        0.927     0.068     2.108     2.270
   146   1 H        0.861     0.239     0.929     1.510
   147   1 H        0.927     0.096     1.818     2.108
   148   1 H        0.927     0.074     2.046     2.237
   149   1 H        0.926     0.068     2.108     2.270
   150   1 H        0.804     0.326     0.649     1.265
   151   1 H        0.861     0.221     1.003     1.569
   152   1 H        0.927     0.080     1.977     2.199
   153   1 H        0.929     0.077     2.009     2.216
   154   1 H        0.927     0.078     2.001     2.212
   155   1 H        0.927     0.088     1.900     2.155
   156   1 H        0.929     0.054     2.272     2.357
   157   1 H        0.929     0.053     2.276     2.359
   158   1 H        0.929     0.056     2.249     2.345
   159   1 H        0.929     0.066     2.128     2.281
   160   1 H        0.807     0.337     0.620     1.237
   161   1 H        0.860     0.169     1.281     1.773
   162   1 H        0.860     0.165     1.302     1.788
   163   1 H        0.927     0.081     1.966     2.193
   164   1 H        0.929     0.073     2.048     2.238
   165   1 H        0.927     0.070     2.082     2.256
   166   1 H        0.927     0.080     1.974     2.197
   167   1 H        1.029     0.277     0.777     1.377
   168   1 H        0.861     0.257     0.857     1.450
   169   1 H        0.860     0.170     1.271     1.766
   170   1 H        0.860     0.148     1.412     1.861
   171   1 H        0.927     0.013     2.842     2.636
   172   1 H        0.927     0.044     2.390     2.418
   173   1 H        0.927     0.033     2.538     2.491
   174   1 H        0.927     0.033     2.548     2.496
   175   1 H        0.927     0.041     2.438     2.442
   176   1 H        0.927     0.051     2.313     2.378
   177   1 H        0.927     0.042     2.419     2.432
   178   1 H        0.927     0.040     2.442     2.444
   179   1 H        0.926     0.045     2.386     2.416
   180   1 H        0.927     0.045     2.378     2.412
   181   1 H        0.861     0.209     1.059     1.612
   182   1 H        0.927     0.115     1.652     2.010
   183   1 H        0.929     0.081     1.963     2.191
   184   1 H        0.927     0.071     2.073     2.252
   185   1 H        0.927     0.071     2.072     2.251
   186   1 H        0.927     0.046     2.375     2.410
   187   1 H        0.927     0.062     2.180     2.309
   188   1 H        0.927     0.067     2.113     2.273
   189   1 H        0.927     0.062     2.173     2.305
   190   1 H        0.927     0.052     2.296     2.370
   191   1 H        0.860     0.158     1.345     1.817
   192   1 H        0.860     0.160     1.337     1.811
   193   1 H        0.927     0.064     2.152     2.294
   194   1 H        0.929     0.052     2.299     2.371
   195   1 H        0.927     0.062     2.173     2.305
   196   1 H        0.927     0.062     2.176     2.307
   197   1 H        0.929     0.061     2.189     2.313
   198   1 H        0.929     0.061     2.191     2.315
   199   1 H        0.929     0.051     2.309     2.376
   200   1 H        0.929     0.058     2.218     2.329
   201   1 H        0.986     0.358     0.557     1.166
   202   1 H        0.860     0.172     1.259     1.758
   203   1 H        0.860     0.180     1.215     1.727
   204   1 H        0.927     0.069     2.098     2.265
   205   1 H        0.929     0.089     1.885     2.147
   206   1 H        0.927     0.173     1.247     1.746
   207   1 H        0.927     0.186     1.170     1.692
   208   1 H        1.857     0.417     0.444     1.040
   209   1 H        0.929     0.045     2.388     2.416
   210   1 H        0.929     0.050     2.324     2.384
   211   1 H        0.927     0.105     1.742     2.064
   212   1 H        0.927     0.124     1.583     1.967
   213   1 H        0.929     0.050     2.313     2.378
   214   1 H        0.929     0.053     2.280     2.361
   215   1 H        0.858     0.174     1.248     1.750

 Mol. C6AA /au·bohr⁶  :     452033.376949
 Mol. C8AA /au·bohr⁸  :   10390710.842393
 Mol. α(0) /au        :       1020.546962


Wiberg/Mayer (AO) data.
largest (>0.10) Wiberg bond orders for each atom

 ---------------------------------------------------------------------------
     #   Z sym  total        # sym  WBO       # sym  WBO       # sym  WBO
 ---------------------------------------------------------------------------
     1   7 N    2.996 --     2 C    1.022   106 H    0.961   107 H    0.943
     2   6 C    3.984 --     1 N    1.022     5 C    0.979   108 H    0.954
                             3 C    0.951
     3   6 C    3.884 --     4 O    1.922     2 C    0.951   109 H    0.951
     4   8 O    2.055 --     3 C    1.922
     5   6 C    3.987 --   110 H    0.982     2 C    0.979   112 H    0.977
                           111 H    0.967
     6   7 N    2.993 --     7 C    0.995   114 H    0.966   113 H    0.946
     7   6 C    3.984 --     6 N    0.995    10 C    0.974   115 H    0.965
                             8 C    0.944
     8   6 C    3.948 --     9 O    1.633    14 N    1.313     7 C    0.944
     9   8 O    1.947 --     8 C    1.633    14 N    0.202
    10   6 C    3.992 --    12 C    0.995    11 C    0.994     7 C    0.974
                           116 H    0.970
    11   6 C    3.997 --    13 C    1.017    10 C    0.994   118 H    0.980
                           117 H    0.965
    12   6 C    3.995 --    10 C    0.995   119 H    0.989   120 H    0.987
                           121 H    0.983
    13   6 C    3.996 --    11 C    1.017   122 H    0.989   123 H    0.987
                           124 H    0.984
    14   7 N    3.467 --     8 C    1.313    15 C    0.946   125 H    0.927
                             9 O    0.202
    15   6 C    3.961 --    18 C    0.972    16 C    0.960   126 H    0.951
                            14 N    0.946
    16   6 C    3.949 --    17 O    1.607    21 N    1.304    15 C    0.960
    17   8 O    1.920 --    16 C    1.607    21 N    0.197
    18   6 C    3.989 --    19 C    1.007    20 C    1.001    15 C    0.972
                           127 H    0.966
    19   6 C    3.992 --    18 C    1.007   130 H    0.984   129 H    0.980
                           128 H    0.977
    20   6 C    3.993 --    18 C    1.001   132 H    0.984   133 H    0.983
                           131 H    0.983
    21   7 N    3.481 --    16 C    1.304    22 C    0.994   134 H    0.905
                            17 O    0.197
    22   6 C    3.964 --    21 N    0.994    25 C    0.956   135 H    0.927
                            23 C    0.918
    23   6 C    3.944 --    24 O    1.633    31 N    1.282    22 C    0.918
    24   8 O    1.980 --    23 C    1.633    31 N    0.191
    25   6 C    3.983 --    26 C    1.008   136 H    0.969   137 H    0.957
                            22 C    0.956
    26   6 C    3.903 --    28 C    1.521    27 N    1.148    25 C    1.008
                            29 C    0.126
    27   7 N    3.515 --    29 C    1.275    26 C    1.148   215 H    0.863
    28   6 C    3.945 --    26 C    1.521    30 N    1.304   138 H    0.968
    29   6 C    2.943 --    30 N    1.466    27 N    1.275    26 C    0.126
    30   7 N    2.933 --    29 C    1.466    28 C    1.304
    31   7 N    3.498 --    23 C    1.282    37 C    0.973    32 C    0.960
                            24 O    0.191
    32   6 C    3.964 --    35 C    0.971    31 N    0.960   139 H    0.958
                            33 C    0.940
    33   6 C    3.948 --    34 O    1.638    38 N    1.301    32 C    0.940
    34   8 O    1.946 --    33 C    1.638    38 N    0.195
    35   6 C    3.990 --    36 C    1.017   140 H    0.976   141 H    0.974
                            32 C    0.971
    36   6 C    3.988 --    35 C    1.017    37 C    0.986   143 H    0.977
                           142 H    0.975
    37   6 C    3.957 --    36 C    0.986    31 N    0.973   145 H    0.967
                           144 H    0.964
    38   7 N    3.443 --    33 C    1.301    39 C    0.955   146 H    0.837
                            34 O    0.195
    39   6 C    3.964 --    42 C    0.996    38 N    0.955    40 C    0.940
                           147 H    0.940
    40   6 C    3.955 --    41 O    1.623    44 N    1.316    39 C    0.940
    41   8 O    1.955 --    40 C    1.623    44 N    0.201
    42   6 C    3.952 --    39 C    0.996    43 O    0.981   149 H    0.969
                           148 H    0.965
    43   8 O    1.915 --    42 C    0.981   150 H    0.884
    44   7 N    3.484 --    40 C    1.316    45 C    0.978   151 H    0.902
                            41 O    0.201
    45   6 C    3.964 --    44 N    0.978    46 C    0.970    48 C    0.956
                           152 H    0.942
    46   6 C    3.896 --    47 O    1.895    45 C    0.970   153 H    0.953
    47   8 O    2.034 --    46 C    1.895
    48   6 C    3.982 --    49 C    0.998   154 H    0.972   155 H    0.957
                            45 C    0.956
    49   6 C    3.982 --    50 C    1.424    51 C    1.396    48 C    0.998
    50   6 C    3.991 --    52 C    1.427    49 C    1.424   156 H    0.970
                            53 C    0.112
    51   6 C    3.990 --    53 C    1.458    49 C    1.396   157 H    0.972
                            52 C    0.106
    52   6 C    3.990 --    50 C    1.427    54 C    1.408   158 H    0.967
                            51 C    0.106
    53   6 C    3.990 --    51 C    1.458    54 C    1.377   159 H    0.968
                            50 C    0.112
    54   6 C    3.935 --    52 C    1.408    53 C    1.377    55 O    1.020
    55   8 O    2.033 --    54 C    1.020   160 H    0.869
    56   7 N    2.989 --    57 C    1.001   161 H    0.957   162 H    0.957
    57   6 C    3.986 --    56 N    1.001    58 C    1.000    60 C    0.970
                           163 H    0.918
    58   6 C    3.912 --    59 O    1.883    57 C    1.000   164 H    0.951
    59   8 O    2.039 --    58 C    1.883
    60   6 C    3.988 --    57 C    0.970   165 H    0.966   166 H    0.963
                            61 C    0.950
    61   6 C    3.945 --    62 O    1.583    63 N    1.384    60 C    0.950
    62   8 O    1.883 --    61 C    1.583    63 N    0.191
    63   7 N    3.432 --    61 C    1.384   168 H    0.904   167 H    0.796
                            62 O    0.191
    64   7 N    2.992 --    65 C    1.008   170 H    0.964   169 H    0.938
    65   6 C    3.987 --    64 N    1.008    66 C    0.989   171 H    0.955
                            68 C    0.935
    66   6 C    3.948 --    67 O    1.572    72 N    1.315    65 C    0.989
    67   8 O    1.896 --    66 C    1.572    72 N    0.190
    68   6 C    3.990 --    70 C    1.017    69 C    0.998   172 H    0.967
                            65 C    0.935
    69   6 C    3.998 --    71 C    1.016    68 C    0.998   173 H    0.977
                           174 H    0.975
    70   6 C    3.995 --    68 C    1.017   176 H    0.983   177 H    0.977
                           175 H    0.976
    71   6 C    3.995 --    69 C    1.016   178 H    0.988   179 H    0.986
                           180 H    0.982
    72   7 N    3.482 --    66 C    1.315    73 C    0.972   181 H    0.922
                            67 O    0.190
    73   6 C    3.966 --    74 C    0.999    72 N    0.972    76 C    0.948
                           182 H    0.930
    74   6 C    3.901 --    75 O    1.884    73 C    0.999   183 H    0.950
    75   8 O    2.038 --    74 C    1.884
    76   6 C    3.986 --    77 C    1.006   185 H    0.966   184 H    0.963
                            73 C    0.948
    77   6 C    3.983 --    76 C    1.006    78 S    0.991   186 H    0.975
                           187 H    0.972
    78  16 S    2.104 --    79 C    1.017    77 C    0.991
    79   6 C    3.976 --    78 S    1.017   190 H    0.983   188 H    0.977
                           189 H    0.971
    80   7 N    2.983 --    81 C    1.012   191 H    0.960   192 H    0.958
    81   6 C    3.986 --    82 C    1.014    80 N    1.012    84 C    0.938
                           193 H    0.928
    82   6 C    3.912 --    83 O    1.887    81 C    1.014   194 H    0.941
    83   8 O    2.055 --    82 C    1.887
    84   6 C    3.989 --    85 C    1.008   196 H    0.976   195 H    0.967
                            81 C    0.938
    85   6 C    3.986 --    86 C    1.423    87 C    1.408    84 C    1.008
    86   6 C    3.989 --    85 C    1.423    88 C    1.413   197 H    0.971
                            89 C    0.120
    87   6 C    3.990 --    89 C    1.445    85 C    1.408   198 H    0.970
                            88 C    0.109
    88   6 C    3.989 --    86 C    1.413    90 C    1.412   199 H    0.964
                            87 C    0.109
    89   6 C    3.988 --    87 C    1.445    90 C    1.370   200 H    0.971
                            86 C    0.120
    90   6 C    3.932 --    88 C    1.412    89 C    1.370    91 O    1.029
    91   8 O    2.030 --    90 C    1.029   201 H    0.732
    92   7 N    2.979 --    93 C    1.014   202 H    0.955   203 H    0.951
    93   6 C    3.982 --    92 N    1.014    94 C    0.980   204 H    0.960
                            96 C    0.940
    94   6 C    3.887 --    95 O    1.916    93 C    0.980   205 H    0.945
    95   8 O    2.046 --    94 C    1.916
    96   6 C    3.942 --    93 C    0.940   206 H    0.923   207 H    0.886
                            97 C    0.606   208 H    0.503
    97   6 C    3.735 --    98 C    1.442    99 C    1.203    96 C    0.606
                           208 H    0.260
    98   6 C    3.909 --    97 C    1.442   100 N    1.337   209 H    0.972
    99   6 C    3.951 --   102 C    1.366    97 C    1.203   101 C    1.191
   100   7 N    2.990 --   101 C    1.434    98 C    1.337
   101   6 C    3.900 --   100 N    1.434    99 C    1.191   103 C    1.064
   102   6 C    3.785 --    99 C    1.366   104 C    1.325   210 H    0.967
   103   6 C    3.982 --   105 C    1.091   101 C    1.064   212 H    0.874
                           211 H    0.868
   104   6 C    3.991 --   105 C    1.584   102 C    1.325   213 H    0.969
   105   6 C    3.810 --   104 C    1.584   103 C    1.091   214 H    0.970
   106   1 H    0.977 --     1 N    0.961
   107   1 H    0.977 --     1 N    0.943
   108   1 H    0.999 --     2 C    0.954
   109   1 H    0.994 --     3 C    0.951
   110   1 H    0.997 --     5 C    0.982
   111   1 H    0.994 --     5 C    0.967
   112   1 H    0.997 --     5 C    0.977
   113   1 H    0.973 --     6 N    0.946
   114   1 H    0.978 --     6 N    0.966
   115   1 H    0.998 --     7 C    0.965
   116   1 H    0.999 --    10 C    0.970
   117   1 H    0.999 --    11 C    0.965
   118   1 H    0.999 --    11 C    0.980
   119   1 H    0.998 --    12 C    0.989
   120   1 H    0.999 --    12 C    0.987
   121   1 H    0.998 --    12 C    0.983
   122   1 H    0.999 --    13 C    0.989
   123   1 H    0.998 --    13 C    0.987
   124   1 H    0.998 --    13 C    0.984
   125   1 H    0.957 --    14 N    0.927
   126   1 H    0.993 --    15 C    0.951
   127   1 H    0.997 --    18 C    0.966
   128   1 H    0.997 --    19 C    0.977
   129   1 H    0.997 --    19 C    0.980
   130   1 H    0.997 --    19 C    0.984
   131   1 H    0.998 --    20 C    0.983
   132   1 H    0.996 --    20 C    0.984
   133   1 H    0.998 --    20 C    0.983
   134   1 H    0.945 --    21 N    0.905
   135   1 H    0.997 --    22 C    0.927
   136   1 H    0.996 --    25 C    0.969
   137   1 H    0.994 --    25 C    0.957
   138   1 H    0.997 --    28 C    0.968
   139   1 H    0.994 --    32 C    0.958
   140   1 H    0.995 --    35 C    0.976
   141   1 H    0.996 --    35 C    0.974
   142   1 H    0.995 --    36 C    0.975
   143   1 H    0.996 --    36 C    0.977
   144   1 H    0.996 --    37 C    0.964
   145   1 H    0.995 --    37 C    0.967
   146   1 H    0.943 --    38 N    0.837
   147   1 H    0.991 --    39 C    0.940
   148   1 H    0.994 --    42 C    0.965
   149   1 H    0.995 --    42 C    0.969
   150   1 H    0.894 --    43 O    0.884
   151   1 H    0.951 --    44 N    0.902
   152   1 H    0.993 --    45 C    0.942
   153   1 H    0.994 --    46 C    0.953
   154   1 H    0.993 --    48 C    0.972
   155   1 H    0.992 --    48 C    0.957
   156   1 H    0.997 --    50 C    0.970
   157   1 H    0.997 --    51 C    0.972
   158   1 H    0.997 --    52 C    0.967
   159   1 H    0.995 --    53 C    0.968
   160   1 H    0.886 --    55 O    0.869
   161   1 H    0.972 --    56 N    0.957
   162   1 H    0.973 --    56 N    0.957
   163   1 H    0.993 --    57 C    0.918
   164   1 H    0.994 --    58 C    0.951
   165   1 H    0.995 --    60 C    0.966
   166   1 H    0.993 --    60 C    0.963
   167   1 H    0.923 --    63 N    0.796
   168   1 H    0.934 --    63 N    0.904
   169   1 H    0.971 --    64 N    0.938
   170   1 H    0.977 --    64 N    0.964
   171   1 H    1.000 --    65 C    0.955
   172   1 H    0.997 --    68 C    0.967
   173   1 H    0.999 --    69 C    0.977
   174   1 H    0.999 --    69 C    0.975
   175   1 H    0.998 --    70 C    0.976
   176   1 H    0.997 --    70 C    0.983
   177   1 H    0.998 --    70 C    0.977
   178   1 H    0.998 --    71 C    0.988
   179   1 H    0.998 --    71 C    0.986
   180   1 H    0.998 --    71 C    0.982
   181   1 H    0.956 --    72 N    0.922
   182   1 H    0.987 --    73 C    0.930
   183   1 H    0.993 --    74 C    0.950
   184   1 H    0.995 --    76 C    0.963
   185   1 H    0.995 --    76 C    0.966
   186   1 H    0.998 --    77 C    0.975
   187   1 H    0.996 --    77 C    0.972
   188   1 H    0.995 --    79 C    0.977
   189   1 H    0.996 --    79 C    0.971
   190   1 H    0.997 --    79 C    0.983
   191   1 H    0.975 --    80 N    0.960
   192   1 H    0.974 --    80 N    0.958
   193   1 H    0.996 --    81 C    0.928
   194   1 H    0.996 --    82 C    0.941
   195   1 H    0.996 --    84 C    0.967
   196   1 H    0.996 --    84 C    0.976
   197   1 H    0.996 --    86 C    0.971
   198   1 H    0.996 --    87 C    0.970
   199   1 H    0.997 --    88 C    0.964
   200   1 H    0.996 --    89 C    0.971
   201   1 H    0.871 --    91 O    0.732
   202   1 H    0.969 --    92 N    0.955
   203   1 H    0.968 --    92 N    0.951
   204   1 H    0.995 --    93 C    0.960
   205   1 H    0.992 --    94 C    0.945
   206   1 H    0.970 --    96 C    0.923
   207   1 H    0.964 --    96 C    0.886
   208   1 H    0.826 --    96 C    0.503    97 C    0.260
   209   1 H    0.997 --    98 C    0.972
   210   1 H    0.997 --   102 C    0.967
   211   1 H    0.964 --   103 C    0.868
   212   1 H    0.952 --   103 C    0.874
   213   1 H    0.997 --   104 C    0.969
   214   1 H    0.997 --   105 C    0.970
   215   1 H    0.969 --    27 N    0.863
 ---------------------------------------------------------------------------

Topologies differ in total number of bonds
Writing topology from bond orders to xtbtopo.mol

molecular dipole:
                 x           y           z       tot (Debye)
 q only:        9.742      -5.341      -1.598
   full:       10.673      -5.581      -2.330      31.179
molecular quadrupole (traceless):
                xx          xy          yy          xz          yz          zz
 q only:    -1263.857      92.039     906.975     449.594     -66.224     356.882
  q+dip:    -1369.176      88.664     973.662     543.679     -43.478     395.514
   full:    -1373.018      87.053     977.014     540.752     -45.386     396.004


           -------------------------------------------------
          | TOTAL ENERGY             -323.664772093256 Eh   |
          | GRADIENT NORM               6.060818741671 Eh/α |
          | HOMO-LUMO GAP               0.068193303692 eV   |
           -------------------------------------------------
########################################################################
[WARNING] Runtime exception occurred
-2- restart_readRestart: Dimension missmatch in restart file.
-1- restart_readRestart: Number of electron missmatch in restart file.
########################################################################

------------------------------------------------------------------------
 * finished run on 2025/05/05 at 16:52:00.105     
------------------------------------------------------------------------
 total:
 * wall-time:     0 d,  0 h,  0 min,  1.379 sec
 *  cpu-time:     0 d,  0 h,  0 min, 39.298 sec
 * ratio c/w:    28.492 speedup
 SCF:
 * wall-time:     0 d,  0 h,  0 min,  1.357 sec
 *  cpu-time:     0 d,  0 h,  0 min, 38.720 sec
 * ratio c/w:    28.528 speedup

