      -----------------------------------------------------------      
     |                   =====================                   |     
     |                           x T B                           |     
     |                   =====================                   |     
     |                         S. Grimme                         |     
     |          Mulliken Center for Theoretical Chemistry        |     
     |                    University of Bonn                     |     
      -----------------------------------------------------------      

   * xtb version 6.7.1 (edcfbbe) compiled by 'conda@afd1a870197c' on 2025-04-11

   xtb is free software: you can redistribute it and/or modify it under
   the terms of the GNU Lesser General Public License as published by
   the Free Software Foundation, either version 3 of the License, or
   (at your option) any later version.
   
   xtb is distributed in the hope that it will be useful,
   but WITHOUT ANY WARRANTY; without even the implied warranty of
   MERCHANTABILITY or FITNESS FOR A PARTICULAR PURPOSE.  See the
   GNU Lesser General Public License for more details.
   
   Cite this work as:
   * C. Bannwarth, E. Caldeweyher, S. Ehlert, A. Hansen, P. Pracht,
     J. Seibert, S. Spicher, S. Grimme, WIREs Comput. Mol. Sci., 2020, 11,
     e01493. DOI: 10.1002/wcms.1493
   
   for GFN2-xTB:
   * C. Bannwarth, S. Ehlert and S. Grimme., J. Chem. Theory Comput., 2019,
     15, 1652-1671. DOI: 10.1021/acs.jctc.8b01176
   for GFN1-xTB:
   * S. Grimme, C. Bannwarth, P. Shushkov, J. Chem. Theory Comput., 2017,
     13, 1989-2009. DOI: 10.1021/acs.jctc.7b00118
   for GFN0-xTB:
   * P. Pracht, E. Caldeweyher, S. Ehlert, S. Grimme, ChemRxiv, 2019, preprint.
     DOI: 10.26434/chemrxiv.8326202.v1
   for GFN-FF:
   * S. Spicher and S. Grimme, Angew. Chem. Int. Ed., 2020, 59, 15665-15673.
     DOI: 10.1002/anie.202004239
   
   for ALPB and GBSA implicit solvation:
   * S. Ehlert, M. Stahn, S. Spicher, S. Grimme, J. Chem. Theory Comput.,
     2021, 17, 4250-4261. DOI: 10.1021/acs.jctc.1c00471
   
   for ddCOSMO and CPCM-X implicit solvation:
   * M. Stahn, S. Ehlert, S. Grimme, J. Phys. Chem. A,
     2023, XX, XXXX-XXXX. DOI: 10.1021/acs.jpca.3c04382
   
   for DFT-D4:
   * E. Caldeweyher, C. Bannwarth and S. Grimme, J. Chem. Phys., 2017,
     147, 034112. DOI: 10.1063/1.4993215
   * E. Caldeweyher, S. Ehlert, A. Hansen, H. Neugebauer, S. Spicher,
     C. Bannwarth and S. Grimme, J. Chem. Phys., 2019, 150, 154122.
     DOI: 10.1063/1.5090222
   * E. Caldeweyher, J.-M. Mewes, S. Ehlert and S. Grimme, Phys. Chem. Chem. Phys.
     2020, 22, 8499-8512. DOI: 10.1039/D0CP00502A
   
   for sTDA-xTB:
   * S. Grimme and C. Bannwarth, J. Chem. Phys., 2016, 145, 054103.
     DOI: 10.1063/1.4959605
   
   in the mass-spec context:
   * V. Asgeirsson, C. Bauer and S. Grimme, Chem. Sci., 2017, 8, 4879.
     DOI: 10.1039/c7sc00601b
   * J. Koopman and S. Grimme, ACS Omega 2019, 4, 12, 15120-15133.
     DOI: 10.1021/acsomega.9b02011
   
   for metadynamics refer to:
   * S. Grimme, J. Chem. Theory Comput., 2019, 155, 2847-2862
     DOI: 10.1021/acs.jctc.9b00143
   
   for SPH calculations refer to:
   * S. Spicher and S. Grimme, J. Chem. Theory Comput., 2021, 17, 1701-1714
     DOI: 10.1021/acs.jctc.0c01306
   
   for ONIOM refer to:
   * C. Plett, A. Katbashev, S. Ehlert, S. Grimme, M. Bursch,
     Phys. Chem. Chem. Phys., 2023, 25, 17860-17868. DOI: 10.1039/D3CP02178E
   
   for DIPRO refer to:
   * J. Kohn, N. Gildemeister, S. Grimme, D. Fazzi, A. Hansen,
     J. Chem. Phys., 2023, just accepted.
   
   for PTB refer to:
   * S. Grimme, M. Mueller, A. Hansen, J. Chem. Phys., 2023, 158, 124111.
     DOI: 10.1063/5.0137838
   
   with help from (in alphabetical order)
   P. Atkinson, C. Bannwarth, F. Bohle, G. Brandenburg, E. Caldeweyher
   M. Checinski, S. Dohm, S. Ehlert, S. Ehrlich, I. Gerasimov, C. Hölzer
   A. Katbashev, J. Kohn, J. Koopman, C. Lavigne, S. Lehtola, F. März, M. Müller,
   F. Musil, H. Neugebauer, J. Pisarek, C. Plett, P. Pracht, F. Pultar,
   J. Seibert, P. Shushkov, S. Spicher, M. Stahn, M. Steiner, T. Strunk,
   J. Stückrath, T. Rose, and J. Unsleber
   
 * started run on 2025/05/05 at 16:52:00.123     
   ID    Z sym.   atoms
    1    7 N      1, 6, 14, 21, 27, 30, 31, 38, 44, 56, 63, 64, 72, 80, 92,
                  100
    2    6 C      2, 3, 5, 7, 8, 10-13, 15, 16, 18-20, 22, 23, 25, 26, 28,
                  29, 32, 33, 35-37, 39, 40, 42, 45, 46, 48-54, 57, 58, 60,
                  61, 65, 66, 68-71, 73, 74, 76, 77, 79, 81, 82, 84-90, 93,
                  94, 96-99, 101-105
    3    8 O      4, 9, 17, 24, 34, 41, 43, 47, 55, 59, 62, 67, 75, 83, 91, 95
    4   16 S      78
    5    1 H      106-215

           -------------------------------------------------
          |                Calculation Setup                |
           -------------------------------------------------

          program call               : xtb /tmp/tmpb_e9x9yp/HIE/input.xyz --alpb ether --chrg 0 --input /tmp/tmpb_e9x9yp/HIE/constraints.inp --gfn 2
          hostname                   : fedora
          coordinate file            : /tmp/tmpb_e9x9yp/HIE/input.xyz
          omp threads                :                    32


molecular fragmentation (1/2 indicates fragments):
111112222222222222222222222222222222222222222222222222222222222222222222
222222222222222222222222222222222111111122222222222222222222222222222222
22222222222222222222222222222222222222222222222222222222222222222222222
# atoms in fragment 1/2:    12   203
 fragment masses (1/2) :       73.09     1414.72
CMA distance (Bohr)    :  13.061
constraining FC (au)   :  0.0500

           -------------------------------------------------
          |                 G F N 2 - x T B                 |
           -------------------------------------------------

        Reference                      10.1021/acs.jctc.8b01176
      * Hamiltonian:
        H0-scaling (s, p, d)           1.850000    2.230000    2.230000
        zeta-weighting                 0.500000
      * Dispersion:
        s8                             2.700000
        a1                             0.520000
        a2                             5.000000
        s9                             5.000000
      * Repulsion:
        kExp                           1.500000    1.000000
        rExp                           1.000000
      * Coulomb:
        alpha                          2.000000
        third order                    shell-resolved
        anisotropic                    true
        a3                             3.000000
        a5                             4.000000
        cn-shift                       1.200000
        cn-exp                         4.000000
        max-rad                        5.000000

      * Solvation model:               ALPB
        Solvent                        ether
        Parameter file                 internal GFN2-xTB/ALPB
        Dielectric constant                4.3300E+00
        Reference state                gsolv [1 M gas/solution]
        Free energy shift                  4.9534E-03 Eh       3.1083E+00 kcal/mol
        Temperature                        2.9815E+02 K
        Density                            7.1300E-01 kg/L
        Solvent mass                       7.4120E+01 g/mol
        Interaction kernel             P16
        Born radius scaling (c1)           1.5847E+00
        Born radii integrator          GBOBC
        Born offset                        0.0000E+00 a0       0.0000E+00 AA
        H-bond correction              true
        Ion screening                  false
        Surface tension                    1.0000E-05 Eh       1.5569E+01 dyn/cm
        Grid points                               230 per atom

          ...................................................
          :                      SETUP                      :
          :.................................................:
          :  # basis functions                 536          :
          :  # atomic orbitals                 535          :
          :  # shells                          321          :
          :  # electrons                       580          :
          :  max. iterations                   250          :
          :  Hamiltonian                  GFN2-xTB          :
          :  restarted?                      false          :
          :  GBSA solvation                   true          :
          :  PC potential                    false          :
          :  electronic temp.          300.0000000     K    :
          :  accuracy                    1.0000000          :
          :  -> integral cutoff          0.2500000E+02      :
          :  -> integral neglect         0.1000000E-07      :
          :  -> SCF convergence          0.1000000E-05 Eh   :
          :  -> wf. convergence          0.1000000E-03 e    :
          :  Broyden damping             0.4000000          :
          :  net charge                          0          :
          :  unpaired electrons                  0          :
          ...................................................

 iter      E             dE          RMSdq      gap      omega  full diag
   1   -328.2804432 -0.328280E+03  0.433E+00    1.55       0.0  T
   2   -328.2893046 -0.886141E-02  0.273E+00    0.48       1.0  T
   3   -328.6696072 -0.380303E+00  0.217E+00    1.50       1.0  T
   4   -329.2189166 -0.549309E+00  0.100E+00    1.41       1.0  T
   5   -328.7821238  0.436793E+00  0.117E+00    0.10       1.0  T
   6   -329.1999701 -0.417846E+00  0.669E-01    1.43       1.0  T
   7   -329.2253319 -0.253618E-01  0.575E-01    1.32       1.0  T
   8   -329.2395249 -0.141930E-01  0.499E-01    0.83       1.0  T
   9   -329.2733729 -0.338480E-01  0.325E-01    0.15       1.0  T
  10   -328.7578123  0.515561E+00  0.126E+00    0.28       1.0  T
  11   -329.1578721 -0.400060E+00  0.647E-01    0.04       1.0  T
  12   -329.2964179 -0.138546E+00  0.167E-01    0.10       1.0  T
  13   -329.2948186  0.159931E-02  0.178E-01    0.10       1.0  T
  14   -329.2667231  0.280955E-01  0.333E-01    0.02       1.0  T
  15   -329.2946497 -0.279265E-01  0.179E-01    0.10       1.0  T
  16   -329.3054556 -0.108059E-01  0.137E-02    0.07       1.0  T
  17   -329.3052914  0.164151E-03  0.257E-02    0.07       1.0  T
  18   -329.3054686 -0.177170E-03  0.122E-02    0.07       1.0  T
  19   -329.3054992 -0.306435E-04  0.763E-03    0.06       1.0  T
  20   -329.3055188 -0.195080E-04  0.124E-03    0.06       5.5  T
  21   -329.3055192 -0.454770E-06  0.395E-04    0.06      17.3  T
  22   -329.3055187  0.530396E-06  0.130E-03    0.06       5.2  T
  23   -329.3055192 -0.539886E-06  0.359E-04    0.06      19.0  T

   *** convergence criteria satisfied after 23 iterations ***

         #    Occupation            Energy/Eh            Energy/eV
      -------------------------------------------------------------
         1        2.0000           -0.7483944             -20.3648
       ...           ...                  ...                  ...
       284        2.0000           -0.3656827              -9.9507
       285        2.0000           -0.3641248              -9.9083
       286        2.0000           -0.3634417              -9.8898
       287        2.0000           -0.3571087              -9.7174
       288        2.0000           -0.3444056              -9.3718
       289        2.0000           -0.3425448              -9.3211
       290        1.5439           -0.3148689              -8.5680 (HOMO)
       291        0.4413           -0.3125117              -8.5039 (LUMO)
       292        0.0148           -0.3090546              -8.4098
       293        0.0000           -0.3029922              -8.2448
       294                         -0.2857269              -7.7750
       295                         -0.2794876              -7.6052
       ...                                ...                  ...
       535                         11.8789603             323.2430
      -------------------------------------------------------------
                  HL-Gap            0.0023572 Eh            0.0641 eV
             Fermi-level           -0.3137105 Eh           -8.5365 eV

 SCC (total)                   0 d,  0 h,  0 min,  1.165 sec
 SCC setup                      ...        0 min,  0.004 sec (  0.325%)
 Dispersion                     ...        0 min,  0.009 sec (  0.748%)
 classical contributions        ...        0 min,  0.001 sec (  0.050%)
 integral evaluation            ...        0 min,  0.015 sec (  1.320%)
 iterations                     ...        0 min,  1.085 sec ( 93.170%)
 molecular gradient             ...        0 min,  0.049 sec (  4.164%)
 printout                       ...        0 min,  0.003 sec (  0.222%)

         :::::::::::::::::::::::::::::::::::::::::::::::::::::
         ::                     SUMMARY                     ::
         :::::::::::::::::::::::::::::::::::::::::::::::::::::
         :: total energy            -323.681485412795 Eh    ::
         :: total w/o Gsasa/hb      -323.600847446737 Eh    ::
         :: gradient norm              6.060727007241 Eh/a0 ::
         :: HOMO-LUMO gap              0.064143042881 eV    ::
         ::.................................................::
         :: SCC energy              -329.278910404342 Eh    ::
         :: -> isotropic ES            0.754956156057 Eh    ::
         :: -> anisotropic ES          0.035536995922 Eh    ::
         :: -> anisotropic XC          0.136452258330 Eh    ::
         :: -> dispersion             -0.287065360918 Eh    ::
         :: -> Gsolv                  -0.177358303506 Eh    ::
         ::    -> Gelec               -0.096720337448 Eh    ::
         ::    -> Gsasa               -0.067007589536 Eh    ::
         ::    -> Ghb                 -0.018583814100 Eh    ::
         ::    -> Gshift               0.004953437577 Eh    ::
         :: repulsion energy           5.597424991547 Eh    ::
         :: add. restraining           0.000000000000 Eh    ::
         :: total charge               0.000000000000 e     ::
         :::::::::::::::::::::::::::::::::::::::::::::::::::::

           -------------------------------------------------
          |                Property Printout                |
           -------------------------------------------------

    * Orbital Energies and Occupations

         #    Occupation            Energy/Eh            Energy/eV
      -------------------------------------------------------------
         1        2.0000           -0.7483944             -20.3648
       ...           ...                  ...                  ...
       278        2.0000           -0.3765581             -10.2467
       279        2.0000           -0.3758205             -10.2266
       280        2.0000           -0.3752550             -10.2112
       281        2.0000           -0.3712099             -10.1011
       282        2.0000           -0.3697245             -10.0607
       283        2.0000           -0.3690135             -10.0414
       284        2.0000           -0.3656827              -9.9507
       285        2.0000           -0.3641248              -9.9083
       286        2.0000           -0.3634417              -9.8898
       287        2.0000           -0.3571087              -9.7174
       288        2.0000           -0.3444056              -9.3718
       289        2.0000           -0.3425448              -9.3211
       290        1.5439           -0.3148689              -8.5680 (HOMO)
       291        0.4413           -0.3125117              -8.5039 (LUMO)
       292        0.0148           -0.3090546              -8.4098
       293        0.0000           -0.3029922              -8.2448
       294                         -0.2857269              -7.7750
       295                         -0.2794876              -7.6052
       296                         -0.2782255              -7.5709
       297                         -0.2682485              -7.2994
       298                         -0.2500982              -6.8055
       299                         -0.2426583              -6.6031
       300                         -0.2301934              -6.2639
       301                         -0.2228965              -6.0653
       ...                                ...                  ...
       535                         11.8789603             323.2430
      -------------------------------------------------------------
                  HL-Gap            0.0023572 Eh            0.0641 eV
             Fermi-level           -0.3137105 Eh           -8.5365 eV

     #   Z          covCN         q      C6AA      α(0)
     1   7 N        2.635    -0.363    29.373     8.049
     2   6 C        3.774     0.049    19.778     6.337
     3   6 C        2.752     0.190    23.943     8.013
     4   8 O        0.856    -0.356    20.817     6.117
     5   6 C        3.761    -0.121    22.861     6.816
     6   7 N        2.627    -0.373    29.623     8.083
     7   6 C        3.797     0.018    20.276     6.412
     8   6 C        2.758     0.287    22.142     7.706
     9   8 O        0.863    -0.495    23.662     6.522
    10   6 C        3.850    -0.028    21.041     6.524
    11   6 C        3.805    -0.065    21.746     6.639
    12   6 C        3.748    -0.115    22.763     6.805
    13   6 C        3.755    -0.115    22.752     6.801
    14   7 N        2.693    -0.182    24.949     7.418
    15   6 C        3.796     0.018    20.283     6.413
    16   6 C        2.766     0.265    22.526     7.773
    17   8 O        0.857    -0.514    24.089     6.580
    18   6 C        3.857    -0.015    20.810     6.488
    19   6 C        3.762    -0.124    22.920     6.825
    20   6 C        3.759    -0.123    22.899     6.822
    21   7 N        2.692    -0.163    24.537     7.357
    22   6 C        3.803     0.033    20.016     6.369
    23   6 C        2.751     0.277    22.310     7.734
    24   8 O        0.859    -0.482    23.391     6.484
    25   6 C        3.808    -0.073    21.889     6.660
    26   6 C        3.042     0.024    27.424     8.589
    27   7 N        1.904    -0.369    30.483     8.186
    28   6 C        2.973    -0.047    29.150     8.856
    29   6 C        2.043    -0.096    33.617     9.365
    30   7 N        2.776    -0.117    23.546     7.207
    31   7 N        2.744    -0.102    23.236     7.159
    32   6 C        3.800     0.016    20.299     6.415
    33   6 C        2.748     0.273    22.382     7.747
    34   8 O        0.858    -0.510    23.998     6.568
    35   6 C        3.828    -0.066    21.737     6.634
    36   6 C        3.805    -0.068    21.795     6.646
    37   6 C        3.746    -0.007    20.774     6.501
    38   7 N        2.682    -0.181    24.911     7.413
    39   6 C        3.790     0.016    20.321     6.420
    40   6 C        2.769     0.267    22.496     7.768
    41   8 O        0.859    -0.494    23.652     6.521
    42   6 C        3.680     0.069    19.628     6.345
    43   8 O        1.644    -0.485    22.576     6.414
    44   7 N        2.690    -0.148    24.208     7.307
    45   6 C        3.804     0.044    19.838     6.341
    46   6 C        2.766     0.203    23.683     7.970
    47   8 O        0.855    -0.370    21.101     6.159
    48   6 C        3.809    -0.075    21.924     6.665
    49   6 C        2.951    -0.007    28.185     8.708
    50   6 C        2.927    -0.048    29.182     8.859
    51   6 C        2.923    -0.046    29.135     8.852
    52   6 C        2.915    -0.073    29.816     8.954
    53   6 C        2.914    -0.057    29.422     8.895
    54   6 C        2.862     0.143    24.875     8.175
    55   8 O        1.658    -0.474    22.343     6.381
    56   7 N        2.626    -0.369    29.532     8.071
    57   6 C        3.775     0.032    20.056     6.381
    58   6 C        2.763     0.184    24.054     8.032
    59   8 O        0.855    -0.350    20.716     6.102
    60   6 C        3.800    -0.098    22.377     6.735
    61   6 C        2.736     0.275    22.340     7.739
    62   8 O        0.859    -0.535    24.569     6.646
    63   7 N        2.652    -0.290    27.482     7.786
    64   7 N        2.634    -0.356    29.167     8.021
    65   6 C        3.791     0.032    20.054     6.377
    66   6 C        2.761     0.258    22.653     7.794
    67   8 O        0.856    -0.512    24.055     6.576
    68   6 C        3.849    -0.020    20.905     6.503
    69   6 C        3.808    -0.065    21.731     6.636
    70   6 C        3.762    -0.109    22.629     6.781
    71   6 C        3.757    -0.114    22.732     6.798
    72   7 N        2.690    -0.165    24.564     7.361
    73   6 C        3.791     0.029    20.091     6.383
    74   6 C        2.765     0.196    23.817     7.992
    75   8 O        0.856    -0.364    20.974     6.140
    76   6 C        3.822    -0.062    21.664     6.624
    77   6 C        3.799    -0.015    20.838     6.500
    78  16 S        1.960    -0.222   150.523    20.649
    79   6 C        3.753    -0.056    21.638     6.633
    80   7 N        2.628    -0.379    29.784     8.105
    81   6 C        3.787     0.035    20.008     6.371
    82   6 C        2.771     0.210    23.542     7.946
    83   8 O        0.861    -0.356    20.811     6.116
    84   6 C        3.807    -0.068    21.806     6.648
    85   6 C        2.957    -0.001    28.041     8.686
    86   6 C        2.914    -0.053    29.318     8.879
    87   6 C        2.915    -0.045    29.111     8.848
    88   6 C        2.914    -0.079    29.981     8.979
    89   6 C        2.919    -0.061    29.524     8.910
    90   6 C        2.833     0.141    24.923     8.181
    91   8 O        1.659    -0.502    22.933     6.465
    92   7 N        2.630    -0.370    29.555     8.074
    93   6 C        3.784     0.045    19.838     6.344
    94   6 C        2.767     0.198    23.789     7.988
    95   8 O        0.856    -0.347    20.650     6.093
    96   6 C        4.738    -0.202    24.374     7.011
    97   6 C        3.943    -0.082    21.995     6.664
    98   6 C        3.045     0.021    27.488     8.599
    99   6 C        3.103    -0.033    28.690     8.777
   100   7 N        1.910    -0.322    29.204     8.012
   101   6 C        3.078     0.081    26.123     8.380
   102   6 C        2.913    -0.042    29.037     8.836
   103   6 C        3.832    -0.063    21.676     6.624
   104   6 C        2.913    -0.047    29.155     8.854
   105   6 C        2.923    -0.027    28.673     8.781
   106   1 H        0.860     0.153     1.383     1.842
   107   1 H        0.860     0.152     1.386     1.844
   108   1 H        0.927     0.035     2.516     2.480
   109   1 H        0.929     0.075     2.033     2.230
   110   1 H        0.926     0.057     2.231     2.336
   111   1 H        0.927     0.076     2.023     2.224
   112   1 H        0.927     0.052     2.291     2.367
   113   1 H        0.860     0.163     1.315     1.797
   114   1 H        0.860     0.149     1.407     1.858
   115   1 H        0.926     0.038     2.470     2.458
   116   1 H        0.927     0.038     2.474     2.459
   117   1 H        0.927     0.037     2.487     2.466
   118   1 H        0.927     0.038     2.471     2.458
   119   1 H        0.927     0.040     2.442     2.444
   120   1 H        0.927     0.034     2.529     2.487
   121   1 H        0.927     0.048     2.346     2.395
   122   1 H        0.927     0.038     2.481     2.463
   123   1 H        0.927     0.041     2.439     2.442
   124   1 H        0.927     0.043     2.408     2.426
   125   1 H        0.861     0.206     1.076     1.625
   126   1 H        0.927     0.081     1.967     2.193
   127   1 H        0.927     0.047     2.356     2.400
   128   1 H        0.927     0.052     2.289     2.366
   129   1 H        0.927     0.053     2.288     2.366
   130   1 H        0.927     0.051     2.312     2.378
   131   1 H        0.927     0.048     2.350     2.397
   132   1 H        0.926     0.058     2.221     2.330
   133   1 H        0.927     0.044     2.393     2.419
   134   1 H        0.861     0.232     0.956     1.532
   135   1 H        0.927     0.050     2.323     2.384
   136   1 H        0.926     0.067     2.121     2.278
   137   1 H        0.927     0.061     2.190     2.314
   138   1 H        0.929     0.001     3.039     2.726
   139   1 H        0.927     0.074     2.042     2.234
   140   1 H        0.927     0.063     2.159     2.298
   141   1 H        0.927     0.057     2.231     2.335
   142   1 H        0.927     0.060     2.194     2.316
   143   1 H        0.927     0.064     2.152     2.294
   144   1 H        0.927     0.057     2.239     2.340
   145   1 H        0.927     0.064     2.154     2.295
   146   1 H        0.861     0.227     0.976     1.548
   147   1 H        0.927     0.091     1.866     2.136
   148   1 H        0.927     0.068     2.105     2.269
   149   1 H        0.926     0.074     2.042     2.235
   150   1 H        0.804     0.322     0.658     1.275
   151   1 H        0.861     0.224     0.991     1.560
   152   1 H        0.927     0.079     1.985     2.203
   153   1 H        0.929     0.075     2.032     2.229
   154   1 H        0.927     0.078     1.999     2.211
   155   1 H        0.927     0.089     1.891     2.150
   156   1 H        0.929     0.054     2.273     2.358
   157   1 H        0.929     0.053     2.278     2.360
   158   1 H        0.929     0.055     2.262     2.352
   159   1 H        0.929     0.065     2.140     2.287
   160   1 H        0.807     0.336     0.622     1.239
   161   1 H        0.860     0.168     1.288     1.778
   162   1 H        0.860     0.164     1.308     1.791
   163   1 H        0.927     0.078     1.999     2.211
   164   1 H        0.929     0.073     2.056     2.242
   165   1 H        0.927     0.074     2.040     2.234
   166   1 H        0.927     0.083     1.946     2.182
   167   1 H        1.029     0.275     0.784     1.383
   168   1 H        0.861     0.255     0.864     1.456
   169   1 H        0.860     0.171     1.268     1.764
   170   1 H        0.860     0.148     1.412     1.861
   171   1 H        0.927     0.013     2.844     2.637
   172   1 H        0.927     0.044     2.394     2.420
   173   1 H        0.927     0.034     2.534     2.489
   174   1 H        0.927     0.033     2.547     2.496
   175   1 H        0.927     0.041     2.433     2.439
   176   1 H        0.927     0.052     2.297     2.370
   177   1 H        0.927     0.040     2.442     2.444
   178   1 H        0.927     0.040     2.442     2.444
   179   1 H        0.926     0.045     2.388     2.417
   180   1 H        0.927     0.044     2.392     2.418
   181   1 H        0.861     0.209     1.060     1.613
   182   1 H        0.927     0.116     1.648     2.007
   183   1 H        0.929     0.082     1.961     2.190
   184   1 H        0.927     0.072     2.067     2.248
   185   1 H        0.927     0.071     2.070     2.250
   186   1 H        0.927     0.046     2.376     2.410
   187   1 H        0.927     0.062     2.179     2.308
   188   1 H        0.927     0.067     2.114     2.273
   189   1 H        0.927     0.062     2.171     2.304
   190   1 H        0.927     0.052     2.297     2.370
   191   1 H        0.860     0.159     1.340     1.813
   192   1 H        0.860     0.160     1.335     1.810
   193   1 H        0.927     0.060     2.193     2.316
   194   1 H        0.929     0.053     2.283     2.362
   195   1 H        0.927     0.062     2.174     2.306
   196   1 H        0.927     0.063     2.162     2.299
   197   1 H        0.929     0.050     2.324     2.384
   198   1 H        0.929     0.063     2.165     2.301
   199   1 H        0.929     0.050     2.325     2.384
   200   1 H        0.929     0.061     2.183     2.311
   201   1 H        0.986     0.360     0.553     1.162
   202   1 H        0.860     0.174     1.252     1.753
   203   1 H        0.860     0.179     1.220     1.730
   204   1 H        0.927     0.069     2.094     2.263
   205   1 H        0.929     0.089     1.885     2.147
   206   1 H        0.927     0.169     1.268     1.761
   207   1 H        0.927     0.177     1.225     1.731
   208   1 H        1.857     0.416     0.445     1.042
   209   1 H        0.929     0.043     2.407     2.426
   210   1 H        0.929     0.048     2.346     2.395
   211   1 H        0.927     0.108     1.710     2.045
   212   1 H        0.927     0.126     1.569     1.959
   213   1 H        0.929     0.051     2.304     2.374
   214   1 H        0.929     0.055     2.258     2.350
   215   1 H        0.858     0.146     1.426     1.871

 Mol. C6AA /au·bohr⁶  :     452112.590745
 Mol. C8AA /au·bohr⁸  :   10390529.930716
 Mol. α(0) /au        :       1020.650374


Wiberg/Mayer (AO) data.
largest (>0.10) Wiberg bond orders for each atom

 ---------------------------------------------------------------------------
     #   Z sym  total        # sym  WBO       # sym  WBO       # sym  WBO
 ---------------------------------------------------------------------------
     1   7 N    2.996 --     2 C    1.022   106 H    0.961   107 H    0.943
     2   6 C    3.984 --     1 N    1.022     5 C    0.979   108 H    0.954
                             3 C    0.951
     3   6 C    3.884 --     4 O    1.922     2 C    0.951   109 H    0.951
     4   8 O    2.055 --     3 C    1.922
     5   6 C    3.987 --   110 H    0.982     2 C    0.979   112 H    0.977
                           111 H    0.967
     6   7 N    2.993 --     7 C    0.995   114 H    0.966   113 H    0.946
     7   6 C    3.984 --     6 N    0.995    10 C    0.974   115 H    0.965
                             8 C    0.944
     8   6 C    3.949 --     9 O    1.631    14 N    1.315     7 C    0.944
     9   8 O    1.946 --     8 C    1.631    14 N    0.202
    10   6 C    3.992 --    12 C    0.995    11 C    0.994     7 C    0.974
                           116 H    0.970
    11   6 C    3.997 --    13 C    1.017    10 C    0.994   118 H    0.980
                           117 H    0.965
    12   6 C    3.995 --    10 C    0.995   119 H    0.989   120 H    0.987
                           121 H    0.983
    13   6 C    3.996 --    11 C    1.017   122 H    0.989   123 H    0.987
                           124 H    0.984
    14   7 N    3.469 --     8 C    1.315    15 C    0.946   125 H    0.927
                             9 O    0.202
    15   6 C    3.960 --    18 C    0.972    16 C    0.959   126 H    0.951
                            14 N    0.946
    16   6 C    3.949 --    17 O    1.606    21 N    1.306    15 C    0.959
    17   8 O    1.919 --    16 C    1.606    21 N    0.198
    18   6 C    3.989 --    19 C    1.007    20 C    1.001    15 C    0.972
                           127 H    0.966
    19   6 C    3.991 --    18 C    1.007   130 H    0.984   129 H    0.979
                           128 H    0.977
    20   6 C    3.993 --    18 C    1.001   132 H    0.984   133 H    0.983
                           131 H    0.983
    21   7 N    3.484 --    16 C    1.306    22 C    0.994   134 H    0.905
                            17 O    0.198
    22   6 C    3.963 --    21 N    0.994    25 C    0.959   135 H    0.927
                            23 C    0.917
    23   6 C    3.945 --    24 O    1.636    31 N    1.284    22 C    0.917
    24   8 O    1.982 --    23 C    1.636    31 N    0.192
    25   6 C    3.981 --    26 C    1.008   136 H    0.967    22 C    0.959
                           137 H    0.958
    26   6 C    3.933 --    28 C    1.536    27 N    1.246    25 C    1.008
    27   7 N    2.978 --    29 C    1.510    26 C    1.246
    28   6 C    3.918 --    26 C    1.536    30 N    1.189   138 H    0.969
                            29 C    0.120
    29   6 C    2.943 --    27 N    1.510    30 N    1.243    28 C    0.120
    30   7 N    3.522 --    29 C    1.243    28 C    1.189   215 H    0.944
    31   7 N    3.502 --    23 C    1.284    37 C    0.976    32 C    0.961
                            24 O    0.192
    32   6 C    3.964 --    35 C    0.973    31 N    0.961   139 H    0.959
                            33 C    0.938
    33   6 C    3.951 --    34 O    1.619    38 N    1.328    32 C    0.938
    34   8 O    1.931 --    33 C    1.619    38 N    0.202
    35   6 C    3.991 --    36 C    1.017   140 H    0.977   141 H    0.975
                            32 C    0.973
    36   6 C    3.989 --    35 C    1.017    37 C    0.986   143 H    0.977
                           142 H    0.977
    37   6 C    3.960 --    36 C    0.986    31 N    0.976   145 H    0.968
                           144 H    0.965
    38   7 N    3.476 --    33 C    1.328    39 C    0.960   146 H    0.882
                            34 O    0.202
    39   6 C    3.968 --    42 C    0.996    38 N    0.960   147 H    0.941
                            40 C    0.941
    40   6 C    3.954 --    41 O    1.617    44 N    1.320    39 C    0.941
    41   8 O    1.946 --    40 C    1.617    44 N    0.199
    42   6 C    3.950 --    39 C    0.996    43 O    0.979   149 H    0.970
                           148 H    0.967
    43   8 O    1.915 --    42 C    0.979   150 H    0.886
    44   7 N    3.488 --    40 C    1.320    45 C    0.980   151 H    0.901
                            41 O    0.199
    45   6 C    3.965 --    44 N    0.980    46 C    0.971    48 C    0.955
                           152 H    0.943
    46   6 C    3.897 --    47 O    1.892    45 C    0.971   153 H    0.953
    47   8 O    2.031 --    46 C    1.892
    48   6 C    3.982 --    49 C    0.999   154 H    0.972   155 H    0.956
                            45 C    0.955
    49   6 C    3.983 --    50 C    1.424    51 C    1.396    48 C    0.999
    50   6 C    3.991 --    52 C    1.427    49 C    1.424   156 H    0.970
                            53 C    0.112
    51   6 C    3.990 --    53 C    1.458    49 C    1.396   157 H    0.972
                            52 C    0.106
    52   6 C    3.990 --    50 C    1.427    54 C    1.408   158 H    0.967
                            51 C    0.106
    53   6 C    3.990 --    51 C    1.458    54 C    1.377   159 H    0.968
                            50 C    0.112
    54   6 C    3.934 --    52 C    1.408    53 C    1.377    55 O    1.019
    55   8 O    2.031 --    54 C    1.019   160 H    0.869
    56   7 N    2.989 --    57 C    1.001   161 H    0.958   162 H    0.957
    57   6 C    3.986 --    56 N    1.001    58 C    0.999    60 C    0.970
                           163 H    0.919
    58   6 C    3.912 --    59 O    1.886    57 C    0.999   164 H    0.951
    59   8 O    2.041 --    58 C    1.886
    60   6 C    3.987 --    57 C    0.970   165 H    0.965   166 H    0.962
                            61 C    0.950
    61   6 C    3.945 --    62 O    1.589    63 N    1.376    60 C    0.950
    62   8 O    1.886 --    61 C    1.589    63 N    0.189
    63   7 N    3.425 --    61 C    1.376   168 H    0.905   167 H    0.797
                            62 O    0.189
    64   7 N    2.992 --    65 C    1.009   170 H    0.964   169 H    0.938
    65   6 C    3.987 --    64 N    1.009    66 C    0.988   171 H    0.955
                            68 C    0.936
    66   6 C    3.948 --    67 O    1.575    72 N    1.314    65 C    0.988
    67   8 O    1.899 --    66 C    1.575    72 N    0.190
    68   6 C    3.990 --    70 C    1.017    69 C    0.998   172 H    0.967
                            65 C    0.936
    69   6 C    3.998 --    71 C    1.016    68 C    0.998   173 H    0.977
                           174 H    0.975
    70   6 C    3.995 --    68 C    1.017   176 H    0.983   177 H    0.978
                           175 H    0.976
    71   6 C    3.995 --    69 C    1.016   178 H    0.988   179 H    0.987
                           180 H    0.982
    72   7 N    3.481 --    66 C    1.314    73 C    0.972   181 H    0.922
                            67 O    0.190
    73   6 C    3.966 --    74 C    1.000    72 N    0.972    76 C    0.948
                           182 H    0.930
    74   6 C    3.904 --    75 O    1.885    73 C    1.000   183 H    0.950
    75   8 O    2.040 --    74 C    1.885
    76   6 C    3.986 --    77 C    1.006   185 H    0.966   184 H    0.963
                            73 C    0.948
    77   6 C    3.983 --    76 C    1.006    78 S    0.991   186 H    0.975
                           187 H    0.972
    78  16 S    2.105 --    79 C    1.017    77 C    0.991
    79   6 C    3.976 --    78 S    1.017   190 H    0.983   188 H    0.977
                           189 H    0.971
    80   7 N    2.983 --    81 C    1.012   191 H    0.960   192 H    0.958
    81   6 C    3.987 --    82 C    1.013    80 N    1.012    84 C    0.938
                           193 H    0.929
    82   6 C    3.911 --    83 O    1.888    81 C    1.013   194 H    0.941
    83   8 O    2.056 --    82 C    1.888
    84   6 C    3.988 --    85 C    1.009   196 H    0.976   195 H    0.966
                            81 C    0.938
    85   6 C    3.987 --    86 C    1.423    87 C    1.408    84 C    1.009
    86   6 C    3.990 --    85 C    1.423    88 C    1.413   197 H    0.972
                            89 C    0.120
    87   6 C    3.990 --    89 C    1.447    85 C    1.408   198 H    0.970
                            88 C    0.108
    88   6 C    3.988 --    86 C    1.413    90 C    1.408   199 H    0.965
                            87 C    0.108
    89   6 C    3.989 --    87 C    1.447    90 C    1.369   200 H    0.971
                            86 C    0.120
    90   6 C    3.932 --    88 C    1.408    89 C    1.369    91 O    1.035
    91   8 O    2.034 --    90 C    1.035   201 H    0.730
    92   7 N    2.979 --    93 C    1.014   202 H    0.954   203 H    0.951
    93   6 C    3.981 --    92 N    1.014    94 C    0.979   204 H    0.960
                            96 C    0.940
    94   6 C    3.884 --    95 O    1.915    93 C    0.979   205 H    0.945
    95   8 O    2.044 --    94 C    1.915
    96   6 C    3.944 --    93 C    0.940   206 H    0.924   207 H    0.890
                            97 C    0.603   208 H    0.505
    97   6 C    3.724 --    98 C    1.433    99 C    1.202    96 C    0.603
                           208 H    0.259
    98   6 C    3.904 --    97 C    1.433   100 N    1.343   209 H    0.972
    99   6 C    3.951 --   102 C    1.361    97 C    1.202   101 C    1.195
   100   7 N    2.993 --   101 C    1.430    98 C    1.343
   101   6 C    3.897 --   100 N    1.430    99 C    1.195   103 C    1.065
   102   6 C    3.778 --    99 C    1.361   104 C    1.328   210 H    0.967
   103   6 C    3.981 --   105 C    1.093   101 C    1.065   212 H    0.872
                           211 H    0.865
   104   6 C    3.991 --   105 C    1.580   102 C    1.328   213 H    0.969
   105   6 C    3.806 --   104 C    1.580   103 C    1.093   214 H    0.970
   106   1 H    0.977 --     1 N    0.961
   107   1 H    0.977 --     1 N    0.943
   108   1 H    0.999 --     2 C    0.954
   109   1 H    0.994 --     3 C    0.951
   110   1 H    0.997 --     5 C    0.982
   111   1 H    0.994 --     5 C    0.967
   112   1 H    0.997 --     5 C    0.977
   113   1 H    0.973 --     6 N    0.946
   114   1 H    0.978 --     6 N    0.966
   115   1 H    0.998 --     7 C    0.965
   116   1 H    0.999 --    10 C    0.970
   117   1 H    0.999 --    11 C    0.965
   118   1 H    0.999 --    11 C    0.980
   119   1 H    0.998 --    12 C    0.989
   120   1 H    0.999 --    12 C    0.987
   121   1 H    0.998 --    12 C    0.983
   122   1 H    0.999 --    13 C    0.989
   123   1 H    0.998 --    13 C    0.987
   124   1 H    0.998 --    13 C    0.984
   125   1 H    0.957 --    14 N    0.927
   126   1 H    0.993 --    15 C    0.951
   127   1 H    0.997 --    18 C    0.966
   128   1 H    0.997 --    19 C    0.977
   129   1 H    0.997 --    19 C    0.979
   130   1 H    0.997 --    19 C    0.984
   131   1 H    0.998 --    20 C    0.983
   132   1 H    0.996 --    20 C    0.984
   133   1 H    0.998 --    20 C    0.983
   134   1 H    0.946 --    21 N    0.905
   135   1 H    0.997 --    22 C    0.927
   136   1 H    0.994 --    25 C    0.967
   137   1 H    0.994 --    25 C    0.958
   138   1 H    0.998 --    28 C    0.969
   139   1 H    0.994 --    32 C    0.959
   140   1 H    0.996 --    35 C    0.977
   141   1 H    0.996 --    35 C    0.975
   142   1 H    0.995 --    36 C    0.977
   143   1 H    0.996 --    36 C    0.977
   144   1 H    0.997 --    37 C    0.965
   145   1 H    0.996 --    37 C    0.968
   146   1 H    0.948 --    38 N    0.882
   147   1 H    0.992 --    39 C    0.941
   148   1 H    0.995 --    42 C    0.967
   149   1 H    0.994 --    42 C    0.970
   150   1 H    0.896 --    43 O    0.886
   151   1 H    0.950 --    44 N    0.901
   152   1 H    0.994 --    45 C    0.943
   153   1 H    0.994 --    46 C    0.953
   154   1 H    0.993 --    48 C    0.972
   155   1 H    0.991 --    48 C    0.956
   156   1 H    0.997 --    50 C    0.970
   157   1 H    0.997 --    51 C    0.972
   158   1 H    0.997 --    52 C    0.967
   159   1 H    0.995 --    53 C    0.968
   160   1 H    0.887 --    55 O    0.869
   161   1 H    0.972 --    56 N    0.958
   162   1 H    0.973 --    56 N    0.957
   163   1 H    0.994 --    57 C    0.919
   164   1 H    0.994 --    58 C    0.951
   165   1 H    0.994 --    60 C    0.965
   166   1 H    0.993 --    60 C    0.962
   167   1 H    0.924 --    63 N    0.797
   168   1 H    0.935 --    63 N    0.905
   169   1 H    0.970 --    64 N    0.938
   170   1 H    0.977 --    64 N    0.964
   171   1 H    1.000 --    65 C    0.955
   172   1 H    0.997 --    68 C    0.967
   173   1 H    0.999 --    69 C    0.977
   174   1 H    0.999 --    69 C    0.975
   175   1 H    0.998 --    70 C    0.976
   176   1 H    0.997 --    70 C    0.983
   177   1 H    0.998 --    70 C    0.978
   178   1 H    0.998 --    71 C    0.988
   179   1 H    0.998 --    71 C    0.987
   180   1 H    0.998 --    71 C    0.982
   181   1 H    0.956 --    72 N    0.922
   182   1 H    0.987 --    73 C    0.930
   183   1 H    0.993 --    74 C    0.950
   184   1 H    0.995 --    76 C    0.963
   185   1 H    0.994 --    76 C    0.966
   186   1 H    0.998 --    77 C    0.975
   187   1 H    0.996 --    77 C    0.972
   188   1 H    0.995 --    79 C    0.977
   189   1 H    0.996 --    79 C    0.971
   190   1 H    0.997 --    79 C    0.983
   191   1 H    0.975 --    80 N    0.960
   192   1 H    0.974 --    80 N    0.958
   193   1 H    0.996 --    81 C    0.929
   194   1 H    0.996 --    82 C    0.941
   195   1 H    0.996 --    84 C    0.966
   196   1 H    0.996 --    84 C    0.976
   197   1 H    0.998 --    86 C    0.972
   198   1 H    0.996 --    87 C    0.970
   199   1 H    0.997 --    88 C    0.965
   200   1 H    0.996 --    89 C    0.971
   201   1 H    0.870 --    91 O    0.730
   202   1 H    0.969 --    92 N    0.954
   203   1 H    0.968 --    92 N    0.951
   204   1 H    0.995 --    93 C    0.960
   205   1 H    0.992 --    94 C    0.945
   206   1 H    0.971 --    96 C    0.924
   207   1 H    0.968 --    96 C    0.890
   208   1 H    0.827 --    96 C    0.505    97 C    0.259
   209   1 H    0.997 --    98 C    0.972
   210   1 H    0.998 --   102 C    0.967
   211   1 H    0.961 --   103 C    0.865
   212   1 H    0.950 --   103 C    0.872
   213   1 H    0.997 --   104 C    0.969
   214   1 H    0.997 --   105 C    0.970
   215   1 H    0.978 --    30 N    0.944
 ---------------------------------------------------------------------------

Topologies differ in total number of bonds
Writing topology from bond orders to xtbtopo.mol

molecular dipole:
                 x           y           z       tot (Debye)
 q only:       11.232      -6.551      -1.813
   full:       12.927      -7.570      -2.702      38.691
molecular quadrupole (traceless):
                xx          xy          yy          xz          yz          zz
 q only:    -1468.138     134.412    1067.236     511.041     -92.795     400.901
  q+dip:    -1682.831     165.656    1227.266     640.461     -84.809     455.565
   full:    -1686.561     164.149    1230.404     637.435     -86.624     456.157


           -------------------------------------------------
          | TOTAL ENERGY             -323.681485412795 Eh   |
          | GRADIENT NORM               6.060727007241 Eh/α |
          | HOMO-LUMO GAP               0.064143042881 eV   |
           -------------------------------------------------
########################################################################
[WARNING] Runtime exception occurred
-2- restart_readRestart: Dimension missmatch in restart file.
-1- restart_readRestart: Number of electron missmatch in restart file.
########################################################################

------------------------------------------------------------------------
 * finished run on 2025/05/05 at 16:52:01.313     
------------------------------------------------------------------------
 total:
 * wall-time:     0 d,  0 h,  0 min,  1.189 sec
 *  cpu-time:     0 d,  0 h,  0 min, 35.408 sec
 * ratio c/w:    29.768 speedup
 SCF:
 * wall-time:     0 d,  0 h,  0 min,  1.167 sec
 *  cpu-time:     0 d,  0 h,  0 min, 34.805 sec
 * ratio c/w:    29.826 speedup

