      -----------------------------------------------------------      
     |                   =====================                   |     
     |                           x T B                           |     
     |                   =====================                   |     
     |                         S. Grimme                         |     
     |          Mulliken Center for Theoretical Chemistry        |     
     |                    University of Bonn                     |     
      -----------------------------------------------------------      

   * xtb version 6.7.1 (edcfbbe) compiled by 'conda@afd1a870197c' on 2025-04-11

   xtb is free software: you can redistribute it and/or modify it under
   the terms of the GNU Lesser General Public License as published by
   the Free Software Foundation, either version 3 of the License, or
   (at your option) any later version.
   
   xtb is distributed in the hope that it will be useful,
   but WITHOUT ANY WARRANTY; without even the implied warranty of
   MERCHANTABILITY or FITNESS FOR A PARTICULAR PURPOSE.  See the
   GNU Lesser General Public License for more details.
   
   Cite this work as:
   * C. Bannwarth, E. Caldeweyher, S. Ehlert, A. Hansen, P. Pracht,
     J. Seibert, S. Spicher, S. Grimme, WIREs Comput. Mol. Sci., 2020, 11,
     e01493. DOI: 10.1002/wcms.1493
   
   for GFN2-xTB:
   * C. Bannwarth, S. Ehlert and S. Grimme., J. Chem. Theory Comput., 2019,
     15, 1652-1671. DOI: 10.1021/acs.jctc.8b01176
   for GFN1-xTB:
   * S. Grimme, C. Bannwarth, P. Shushkov, J. Chem. Theory Comput., 2017,
     13, 1989-2009. DOI: 10.1021/acs.jctc.7b00118
   for GFN0-xTB:
   * P. Pracht, E. Caldeweyher, S. Ehlert, S. Grimme, ChemRxiv, 2019, preprint.
     DOI: 10.26434/chemrxiv.8326202.v1
   for GFN-FF:
   * S. Spicher and S. Grimme, Angew. Chem. Int. Ed., 2020, 59, 15665-15673.
     DOI: 10.1002/anie.202004239
   
   for ALPB and GBSA implicit solvation:
   * S. Ehlert, M. Stahn, S. Spicher, S. Grimme, J. Chem. Theory Comput.,
     2021, 17, 4250-4261. DOI: 10.1021/acs.jctc.1c00471
   
   for ddCOSMO and CPCM-X implicit solvation:
   * M. Stahn, S. Ehlert, S. Grimme, J. Phys. Chem. A,
     2023, XX, XXXX-XXXX. DOI: 10.1021/acs.jpca.3c04382
   
   for DFT-D4:
   * E. Caldeweyher, C. Bannwarth and S. Grimme, J. Chem. Phys., 2017,
     147, 034112. DOI: 10.1063/1.4993215
   * E. Caldeweyher, S. Ehlert, A. Hansen, H. Neugebauer, S. Spicher,
     C. Bannwarth and S. Grimme, J. Chem. Phys., 2019, 150, 154122.
     DOI: 10.1063/1.5090222
   * E. Caldeweyher, J.-M. Mewes, S. Ehlert and S. Grimme, Phys. Chem. Chem. Phys.
     2020, 22, 8499-8512. DOI: 10.1039/D0CP00502A
   
   for sTDA-xTB:
   * S. Grimme and C. Bannwarth, J. Chem. Phys., 2016, 145, 054103.
     DOI: 10.1063/1.4959605
   
   in the mass-spec context:
   * V. Asgeirsson, C. Bauer and S. Grimme, Chem. Sci., 2017, 8, 4879.
     DOI: 10.1039/c7sc00601b
   * J. Koopman and S. Grimme, ACS Omega 2019, 4, 12, 15120-15133.
     DOI: 10.1021/acsomega.9b02011
   
   for metadynamics refer to:
   * S. Grimme, J. Chem. Theory Comput., 2019, 155, 2847-2862
     DOI: 10.1021/acs.jctc.9b00143
   
   for SPH calculations refer to:
   * S. Spicher and S. Grimme, J. Chem. Theory Comput., 2021, 17, 1701-1714
     DOI: 10.1021/acs.jctc.0c01306
   
   for ONIOM refer to:
   * C. Plett, A. Katbashev, S. Ehlert, S. Grimme, M. Bursch,
     Phys. Chem. Chem. Phys., 2023, 25, 17860-17868. DOI: 10.1039/D3CP02178E
   
   for DIPRO refer to:
   * J. Kohn, N. Gildemeister, S. Grimme, D. Fazzi, A. Hansen,
     J. Chem. Phys., 2023, just accepted.
   
   for PTB refer to:
   * S. Grimme, M. Mueller, A. Hansen, J. Chem. Phys., 2023, 158, 124111.
     DOI: 10.1063/5.0137838
   
   with help from (in alphabetical order)
   P. Atkinson, C. Bannwarth, F. Bohle, G. Brandenburg, E. Caldeweyher
   M. Checinski, S. Dohm, S. Ehlert, S. Ehrlich, I. Gerasimov, C. Hölzer
   A. Katbashev, J. Kohn, J. Koopman, C. Lavigne, S. Lehtola, F. März, M. Müller,
   F. Musil, H. Neugebauer, J. Pisarek, C. Plett, P. Pracht, F. Pultar,
   J. Seibert, P. Shushkov, S. Spicher, M. Stahn, M. Steiner, T. Strunk,
   J. Stückrath, T. Rose, and J. Unsleber
   
 * started run on 2025/05/05 at 16:38:32.358     
   ID    Z sym.   atoms
    1    7 N      1, 9, 10, 21, 28, 34, 42, 48, 51, 52, 59, 67, 75, 83
    2    6 C      2, 3, 5-7, 11, 12, 14-20, 22, 23, 25-27, 29, 30, 32, 35,
                  36, 38-41, 43, 44, 46, 47, 49, 50, 53, 54, 56-58, 60, 61,
                  63-66, 68, 69, 71-74, 76, 77, 79-81
    3    8 O      4, 8, 13, 24, 31, 33, 37, 45, 55, 62, 70, 78, 82
    4    1 H      84-186

           -------------------------------------------------
          |                Calculation Setup                |
           -------------------------------------------------

          program call               : xtb /tmp/tmpbs7gk9ui/HID/input.xyz --alpb ether --chrg -2 --input /tmp/tmpbs7gk9ui/HID/constraints.inp --gfn 2
          hostname                   : fedora
          coordinate file            : /tmp/tmpbs7gk9ui/HID/input.xyz
          omp threads                :                    32


molecular fragmentation (1/2 indicates fragments):
111111111111111111112222222222222222222222222222222222222222222222222222
222222222222222221111111111111111111222222222222222222222222222222222222
222222222222222222222222222222222222222222
# atoms in fragment 1/2:    39   147
 fragment masses (1/2) :      277.32      903.19
CMA distance (Bohr)    :  13.334
constraining FC (au)   :  0.0500
########################################################################
[WARNING] Please study the warnings concerning your input carefully
-1- readin_getIntValue: could not parse 'S'
########################################################################

           -------------------------------------------------
          |                 G F N 2 - x T B                 |
           -------------------------------------------------

        Reference                      10.1021/acs.jctc.8b01176
      * Hamiltonian:
        H0-scaling (s, p, d)           1.850000    2.230000    2.230000
        zeta-weighting                 0.500000
      * Dispersion:
        s8                             2.700000
        a1                             0.520000
        a2                             5.000000
        s9                             5.000000
      * Repulsion:
        kExp                           1.500000    1.000000
        rExp                           1.000000
      * Coulomb:
        alpha                          2.000000
        third order                    shell-resolved
        anisotropic                    true
        a3                             3.000000
        a5                             4.000000
        cn-shift                       1.200000
        cn-exp                         4.000000
        max-rad                        5.000000

      * Solvation model:               ALPB
        Solvent                        ether
        Parameter file                 internal GFN2-xTB/ALPB
        Dielectric constant                4.3300E+00
        Reference state                gsolv [1 M gas/solution]
        Free energy shift                  4.9534E-03 Eh       3.1083E+00 kcal/mol
        Temperature                        2.9815E+02 K
        Density                            7.1300E-01 kg/L
        Solvent mass                       7.4120E+01 g/mol
        Interaction kernel             P16
        Born radius scaling (c1)           1.5847E+00
        Born radii integrator          GBOBC
        Born offset                        0.0000E+00 a0       0.0000E+00 AA
        H-bond correction              true
        Ion screening                  false
        Surface tension                    1.0000E-05 Eh       1.5569E+01 dyn/cm
        Grid points                               230 per atom

          ...................................................
          :                      SETUP                      :
          :.................................................:
          :  # basis functions                 435          :
          :  # atomic orbitals                 435          :
          :  # shells                          269          :
          :  # electrons                       477          :
          :  max. iterations                   250          :
          :  Hamiltonian                  GFN2-xTB          :
          :  restarted?                      false          :
          :  GBSA solvation                   true          :
          :  PC potential                    false          :
          :  electronic temp.          300.0000000     K    :
          :  accuracy                    1.0000000          :
          :  -> integral cutoff          0.2500000E+02      :
          :  -> integral neglect         0.1000000E-07      :
          :  -> SCF convergence          0.1000000E-05 Eh   :
          :  -> wf. convergence          0.1000000E-03 e    :
          :  Broyden damping             0.4000000          :
          :  net charge                         -2          :
          :  unpaired electrons                  0          :
          ...................................................

 iter      E             dE          RMSdq      gap      omega  full diag
   1   -269.2888848 -0.269289E+03  0.404E+00    0.22       0.0  T
   2   -268.8700547  0.418830E+00  0.293E+00    0.94       1.0  T
   3   -269.7866367 -0.916582E+00  0.208E+00    0.20       1.0  T
   4   -270.0878543 -0.301218E+00  0.132E+00    1.32       1.0  T
   5   -270.1681910 -0.803367E-01  0.887E-01    0.02       1.0  T
   6   -270.1778961 -0.970503E-02  0.744E-01    0.17       1.0  T
   7   -270.2209318 -0.430357E-01  0.619E-01    0.09       1.0  T
   8   -270.1614327  0.594990E-01  0.770E-01    0.50       1.0  T
   9   -270.2092591 -0.478263E-01  0.590E-01    0.32       1.0  T
  10   -270.1996713  0.958773E-02  0.613E-01    0.12       1.0  T
  11   -270.1885760  0.110953E-01  0.644E-01    0.13       1.0  T
  12   -270.2514081 -0.628321E-01  0.388E-01    0.03       1.0  T
  13   -270.2866894 -0.352813E-01  0.107E-01    0.01       1.0  T
  14   -270.2659639  0.207254E-01  0.298E-01    0.05       1.0  T
  15   -270.2616678  0.429614E-02  0.328E-01    0.06       1.0  T
  16   -270.2833388 -0.216711E-01  0.153E-01    0.01       1.0  T
  17   -270.2856752 -0.233639E-02  0.121E-01    0.01       1.0  T
  18   -270.2880772 -0.240198E-02  0.723E-02    0.02       1.0  T
  19   -270.2893378 -0.126055E-02  0.177E-02    0.01       1.0  T
  20   -270.2894206 -0.828680E-04  0.185E-03    0.01       4.0  T
  21   -270.2894146  0.606475E-05  0.522E-03    0.01       1.4  T
  22   -270.2894198 -0.521353E-05  0.251E-03    0.01       2.9  T
  23   -270.2894206 -0.804220E-06  0.185E-03    0.01       4.0  T
  24   -270.2894214 -0.779630E-06  0.594E-04    0.01      12.3  T
  25   -270.2894215 -0.818832E-07  0.195E-04    0.01      37.7  T

   *** convergence criteria satisfied after 25 iterations ***

         #    Occupation            Energy/Eh            Energy/eV
      -------------------------------------------------------------
         1        2.0000           -0.6873006             -18.7024
       ...           ...                  ...                  ...
       233        2.0000           -0.3233375              -8.7985
       234        2.0000           -0.3109479              -8.4613
       235        2.0000           -0.3062265              -8.3328
       236        2.0000           -0.2630627              -7.1583
       237        2.0000           -0.2480070              -6.7486
       238        1.9931           -0.2144050              -5.8343
       239        0.3928           -0.2041684              -5.5557 (HOMO)
       240        0.3082           -0.2038166              -5.5461 (LUMO)
       241        0.2344           -0.2034620              -5.5365
       242        0.0700           -0.2021319              -5.5003
       243        0.0013           -0.1982951              -5.3959
       244        0.0001           -0.1956069              -5.3227
       ...           ...                  ...                  ...
       435                          1.0285054              27.9871
      -------------------------------------------------------------
                  HL-Gap            0.0003518 Eh            0.0096 eV
             Fermi-level           -0.2071378 Eh           -5.6365 eV

 SCC (total)                   0 d,  0 h,  0 min,  1.198 sec
 SCC setup                      ...        0 min,  0.002 sec (  0.199%)
 Dispersion                     ...        0 min,  0.006 sec (  0.493%)
 classical contributions        ...        0 min,  0.000 sec (  0.028%)
 integral evaluation            ...        0 min,  0.013 sec (  1.124%)
 iterations                     ...        0 min,  1.138 sec ( 94.969%)
 molecular gradient             ...        0 min,  0.034 sec (  2.859%)
 printout                       ...        0 min,  0.004 sec (  0.326%)

         :::::::::::::::::::::::::::::::::::::::::::::::::::::
         ::                     SUMMARY                     ::
         :::::::::::::::::::::::::::::::::::::::::::::::::::::
         :: total energy            -266.240772151267 Eh    ::
         :: total w/o Gsasa/hb      -266.175108546096 Eh    ::
         :: gradient norm              0.750757434628 Eh/a0 ::
         :: HOMO-LUMO gap              0.009573719707 eV    ::
         ::.................................................::
         :: SCC energy              -270.268926069401 Eh    ::
         :: -> isotropic ES            0.884358803691 Eh    ::
         :: -> anisotropic ES          0.058593226519 Eh    ::
         :: -> anisotropic XC          0.123226761934 Eh    ::
         :: -> dispersion             -0.234251455741 Eh    ::
         :: -> Gsolv                  -0.273173613752 Eh    ::
         ::    -> Gelec               -0.207510008581 Eh    ::
         ::    -> Gsasa               -0.060408578417 Eh    ::
         ::    -> Ghb                 -0.010208464331 Eh    ::
         ::    -> Gshift               0.004953437577 Eh    ::
         :: repulsion energy           4.028153918134 Eh    ::
         :: add. restraining           0.000000000000 Eh    ::
         :: total charge              -2.000000000000 e     ::
         :::::::::::::::::::::::::::::::::::::::::::::::::::::

           -------------------------------------------------
          |                Property Printout                |
           -------------------------------------------------

    * Orbital Energies and Occupations

         #    Occupation            Energy/Eh            Energy/eV
      -------------------------------------------------------------
         1        2.0000           -0.6873006             -18.7024
       ...           ...                  ...                  ...
       227        2.0000           -0.3575922              -9.7306
       228        2.0000           -0.3560524              -9.6887
       229        2.0000           -0.3554178              -9.6714
       230        2.0000           -0.3514009              -9.5621
       231        2.0000           -0.3366937              -9.1619
       232        2.0000           -0.3310548              -9.0085
       233        2.0000           -0.3233375              -8.7985
       234        2.0000           -0.3109479              -8.4613
       235        2.0000           -0.3062265              -8.3328
       236        2.0000           -0.2630627              -7.1583
       237        2.0000           -0.2480070              -6.7486
       238        1.9931           -0.2144050              -5.8343
       239        0.3928           -0.2041684              -5.5557 (HOMO)
       240        0.3082           -0.2038166              -5.5461 (LUMO)
       241        0.2344           -0.2034620              -5.5365
       242        0.0700           -0.2021319              -5.5003
       243        0.0013           -0.1982951              -5.3959
       244        0.0001           -0.1956069              -5.3227
       245        0.0001           -0.1952219              -5.3123
       246        0.0000           -0.1904275              -5.1818
       247                         -0.1882265              -5.1219
       248                         -0.1861248              -5.0647
       249                         -0.1847998              -5.0287
       250                         -0.1847459              -5.0272
       ...                                ...                  ...
       435                          1.0285054              27.9871
      -------------------------------------------------------------
                  HL-Gap            0.0003518 Eh            0.0096 eV
             Fermi-level           -0.2071378 Eh           -5.6365 eV

     #   Z          covCN         q      C6AA      α(0)
     1   7 N        2.629    -0.381    29.845     8.114
     2   6 C        3.789     0.034    20.007     6.371
     3   6 C        2.763     0.254    22.722     7.806
     4   8 O        0.858    -0.516    24.147     6.588
     5   6 C        3.819    -0.067    21.762     6.639
     6   6 C        3.817    -0.098    22.358     6.730
     7   6 C        2.748     0.290    22.077     7.694
     8   8 O        0.861    -0.502    23.821     6.544
     9   7 N        2.646    -0.301    27.748     7.823
    10   7 N        2.687    -0.172    24.720     7.384
    11   6 C        3.799     0.033    20.028     6.372
    12   6 C        2.765     0.163    24.475     8.102
    13   8 O        0.856    -0.449    22.683     6.386
    14   6 C        3.815    -0.074    21.903     6.661
    15   6 C        2.964     0.002    27.974     8.675
    16   6 C        2.926    -0.044    29.101     8.847
    17   6 C        2.922    -0.053    29.327     8.881
    18   6 C        2.914    -0.032    28.805     8.801
    19   6 C        2.916    -0.048    29.194     8.860
    20   6 C        2.918    -0.046    29.134     8.851
    21   7 N        2.628    -0.363    29.370     8.049
    22   6 C        3.786     0.038    19.946     6.361
    23   6 C        2.760     0.162    24.479     8.102
    24   8 O        0.856    -0.467    23.075     6.440
    25   6 C        3.855    -0.005    20.635     6.461
    26   6 C        3.769    -0.105    22.543     6.766
    27   6 C        3.772    -0.086    22.178     6.711
    28   7 N        2.636    -0.362    29.328     8.043
    29   6 C        3.788     0.025    20.165     6.396
    30   6 C        2.769     0.268    22.479     7.765
    31   8 O        0.858    -0.484    23.434     6.490
    32   6 C        3.681     0.072    19.578     6.337
    33   8 O        1.653    -0.481    22.481     6.401
    34   7 N        2.691    -0.161    24.486     7.349
    35   6 C        3.804     0.016    20.300     6.414
    36   6 C        2.754     0.257    22.665     7.796
    37   8 O        0.858    -0.511    24.034     6.573
    38   6 C        3.806    -0.078    21.985     6.675
    39   6 C        3.850    -0.016    20.833     6.492
    40   6 C        3.759    -0.119    22.824     6.811
    41   6 C        3.760    -0.119    22.824     6.811
    42   7 N        2.697    -0.223    25.876     7.555
    43   6 C        3.800     0.038    19.936     6.357
    44   6 C        2.759     0.264    22.544     7.775
    45   8 O        0.860    -0.524    24.330     6.613
    46   6 C        3.820    -0.060    21.636     6.620
    47   6 C        3.095    -0.039    28.852     8.803
    48   7 N        2.856    -0.187    25.038     7.432
    49   6 C        3.056     0.002    27.920     8.666
    50   6 C        2.101    -0.218    37.247     9.861
    51   7 N        1.996    -0.445    32.623     8.471
    52   7 N        2.770    -0.103    23.248     7.161
    53   6 C        3.826     0.030    20.058     6.373
    54   6 C        2.755     0.266    22.508     7.769
    55   8 O        0.858    -0.495    23.671     6.523
    56   6 C        3.843    -0.067    21.745     6.633
    57   6 C        3.856    -0.066    21.725     6.629
    58   6 C        3.769     0.006    20.508     6.454
    59   7 N        2.687    -0.205    25.454     7.493
    60   6 C        3.801     0.030    20.077     6.379
    61   6 C        2.755     0.272    22.402     7.751
    62   8 O        0.858    -0.488    23.523     6.503
    63   6 C        3.822    -0.073    21.885     6.657
    64   6 C        3.852    -0.009    20.695     6.470
    65   6 C        3.758    -0.119    22.834     6.813
    66   6 C        3.772    -0.110    22.641     6.780
    67   7 N        2.684    -0.180    24.895     7.410
    68   6 C        3.797     0.028    20.107     6.385
    69   6 C        2.757     0.265    22.530     7.773
    70   8 O        0.858    -0.514    24.090     6.581
    71   6 C        3.812    -0.065    21.741     6.637
    72   6 C        3.853    -0.010    20.724     6.475
    73   6 C        3.760    -0.112    22.682     6.789
    74   6 C        3.764    -0.115    22.739     6.797
    75   7 N        2.688    -0.178    24.847     7.403
    76   6 C        3.793     0.036    19.983     6.366
    77   6 C        2.765     0.139    24.962     8.182
    78   8 O        0.856    -0.475    23.249     6.465
    79   6 C        3.805    -0.061    21.673     6.628
    80   6 C        3.807    -0.091    22.226     6.711
    81   6 C        2.741     0.283    22.210     7.716
    82   8 O        0.858    -0.513    24.065     6.577
    83   7 N        2.639    -0.264    26.854     7.696
    84   1 H        0.980     0.005     2.964     2.690
    85   1 H        0.980     0.011     2.868     2.646
    86   1 H        0.980     0.014     2.818     2.623
    87   1 H        0.980     0.004     2.987     2.700
    88   1 H        0.980     0.001     3.039     2.724
    89   1 H        0.980     0.001     3.025     2.718
    90   1 H        0.860     0.156     1.359     1.826
    91   1 H        0.860     0.163     1.319     1.799
    92   1 H        0.927     0.032     2.563     2.503
    93   1 H        0.927     0.047     2.363     2.404
    94   1 H        0.927     0.061     2.186     2.312
    95   1 H        0.927     0.074     2.038     2.233
    96   1 H        0.927     0.068     2.108     2.270
    97   1 H        0.861     0.211     1.049     1.605
    98   1 H        0.861     0.247     0.894     1.481
    99   1 H        0.861     0.211     1.052     1.607
   100   1 H        0.927     0.070     2.084     2.257
   101   1 H        0.929     0.005     2.975     2.697
   102   1 H        0.927     0.060     2.194     2.316
   103   1 H        0.926     0.056     2.250     2.346
   104   1 H        0.929     0.038     2.473     2.459
   105   1 H        0.929     0.035     2.509     2.477
   106   1 H        0.929     0.040     2.452     2.449
   107   1 H        0.929     0.036     2.502     2.473
   108   1 H        0.929     0.030     2.579     2.511
   109   1 H        0.860     0.137     1.492     1.914
   110   1 H        0.860     0.152     1.390     1.847
   111   1 H        0.927     0.010     2.891     2.659
   112   1 H        0.929     0.022     2.696     2.568
   113   1 H        0.927     0.038     2.478     2.462
   114   1 H        0.927     0.040     2.446     2.446
   115   1 H        0.927     0.025     2.652     2.546
   116   1 H        0.927     0.050     2.316     2.380
   117   1 H        0.927     0.019     2.746     2.591
   118   1 H        0.927     0.036     2.503     2.474
   119   1 H        0.926     0.034     2.527     2.486
   120   1 H        0.860     0.163     1.319     1.799
   121   1 H        0.860     0.161     1.328     1.806
   122   1 H        0.927     0.018     2.759     2.597
   123   1 H        0.927     0.043     2.404     2.425
   124   1 H        0.926     0.050     2.314     2.379
   125   1 H        0.804     0.341     0.609     1.226
   126   1 H        0.861     0.200     1.108     1.649
   127   1 H        0.927     0.081     1.964     2.192
   128   1 H        0.927     0.054     2.274     2.358
   129   1 H        0.927     0.057     2.229     2.334
   130   1 H        0.927     0.032     2.558     2.501
   131   1 H        0.927     0.041     2.436     2.441
   132   1 H        0.926     0.037     2.484     2.465
   133   1 H        0.927     0.048     2.349     2.397
   134   1 H        0.927     0.045     2.387     2.416
   135   1 H        0.926     0.049     2.327     2.385
   136   1 H        0.927     0.040     2.448     2.447
   137   1 H        0.862     0.233     0.954     1.530
   138   1 H        0.926     0.045     2.380     2.412
   139   1 H        0.927     0.018     2.767     2.601
   140   1 H        0.927     0.025     2.653     2.547
   141   1 H        0.929    -0.073     4.695     3.388
   142   1 H        0.927     0.077     2.009     2.216
   143   1 H        0.927     0.067     2.122     2.278
   144   1 H        0.927     0.061     2.187     2.313
   145   1 H        0.927     0.060     2.196     2.318
   146   1 H        0.927     0.066     2.134     2.284
   147   1 H        0.927     0.067     2.123     2.279
   148   1 H        0.927     0.058     2.227     2.334
   149   1 H        0.861     0.230     0.963     1.537
   150   1 H        0.927     0.079     1.985     2.203
   151   1 H        0.927     0.049     2.335     2.389
   152   1 H        0.927     0.070     2.089     2.260
   153   1 H        0.927     0.026     2.643     2.542
   154   1 H        0.926     0.044     2.396     2.421
   155   1 H        0.927     0.040     2.446     2.446
   156   1 H        0.927     0.043     2.405     2.425
   157   1 H        0.927     0.047     2.357     2.401
   158   1 H        0.927     0.044     2.392     2.418
   159   1 H        0.927     0.037     2.490     2.468
   160   1 H        0.861     0.193     1.141     1.673
   161   1 H        0.927     0.082     1.962     2.190
   162   1 H        0.926     0.057     2.235     2.338
   163   1 H        0.927     0.046     2.372     2.408
   164   1 H        0.927     0.028     2.621     2.531
   165   1 H        0.927     0.046     2.365     2.405
   166   1 H        0.927     0.029     2.595     2.519
   167   1 H        0.926     0.049     2.327     2.386
   168   1 H        0.927     0.045     2.382     2.414
   169   1 H        0.927     0.043     2.414     2.430
   170   1 H        0.927     0.038     2.473     2.459
   171   1 H        0.861     0.212     1.048     1.603
   172   1 H        0.927     0.063     2.162     2.299
   173   1 H        0.929     0.064     2.154     2.295
   174   1 H        0.927     0.056     2.245     2.343
   175   1 H        0.927     0.062     2.179     2.308
   176   1 H        0.927     0.071     2.071     2.250
   177   1 H        0.927     0.053     2.277     2.360
   178   1 H        0.861     0.210     1.056     1.610
   179   1 H        0.861     0.230     0.964     1.538
   180   1 H        0.980    -0.003     3.098     2.750
   181   1 H        0.980    -0.004     3.127     2.763
   182   1 H        0.980    -0.014     3.307     2.842
   183   1 H        0.980    -0.005     3.144     2.771
   184   1 H        0.980    -0.002     3.083     2.744
   185   1 H        0.980    -0.002     3.080     2.743
   186   1 H        0.858     0.114     1.675     2.027

 Mol. C6AA /au·bohr⁶  :     308268.485331
 Mol. C8AA /au·bohr⁸  :    6714011.104145
 Mol. α(0) /au        :        835.827661


Wiberg/Mayer (AO) data.
largest (>0.10) Wiberg bond orders for each atom

 ---------------------------------------------------------------------------
     #   Z sym  total        # sym  WBO       # sym  WBO       # sym  WBO
 ---------------------------------------------------------------------------
     1   7 N    2.980 --     2 C    1.004    90 H    0.963    91 H    0.958
     2   6 C    3.986 --     1 N    1.004     5 C    0.975    92 H    0.965
                             3 C    0.953
     3   6 C    3.937 --     4 O    1.597    10 N    1.313     2 C    0.953
     4   8 O    1.914 --     3 C    1.597    10 N    0.197
     5   6 C    3.992 --     6 C    0.996    94 H    0.976     2 C    0.975
                            93 H    0.964
     6   6 C    3.993 --     5 C    0.996    95 H    0.973     7 C    0.972
                            96 H    0.954
     7   6 C    3.941 --     8 O    1.637     9 N    1.300     6 C    0.972
     8   8 O    1.928 --     7 C    1.637     9 N    0.191
     9   7 N    3.385 --     7 C    1.300    97 H    0.899    98 H    0.831
                             8 O    0.191
    10   7 N    3.472 --     3 C    1.313    11 C    0.965    99 H    0.923
                             4 O    0.197
    11   6 C    3.957 --    12 C    0.972    10 N    0.965    14 C    0.954
                           100 H    0.950
    12   6 C    3.695 --    13 O    1.706    11 C    0.972   101 H    0.952
    13   8 O    1.837 --    12 C    1.706
    14   6 C    3.981 --    15 C    1.014   103 H    0.970   102 H    0.968
                            11 C    0.954
    15   6 C    3.970 --    17 C    1.408    16 C    1.400    14 C    1.014
    16   6 C    3.982 --    18 C    1.442    15 C    1.400   104 H    0.973
                            19 C    0.113
    17   6 C    3.987 --    19 C    1.447    15 C    1.408   105 H    0.972
                            18 C    0.107
    18   6 C    3.991 --    20 C    1.442    16 C    1.442   106 H    0.974
                            17 C    0.107
    19   6 C    3.984 --    17 C    1.447    20 C    1.423   107 H    0.975
                            16 C    0.113
    20   6 C    3.969 --    18 C    1.442    19 C    1.423   108 H    0.975
    21   7 N    2.982 --    22 C    1.002   109 H    0.969   110 H    0.953
    22   6 C    3.983 --    21 N    1.002    23 C    0.981   111 H    0.964
                            25 C    0.952
    23   6 C    3.698 --    24 O    1.710    22 C    0.981   112 H    0.958
    24   8 O    1.827 --    23 C    1.710
    25   6 C    3.985 --    27 C    1.012    26 C    1.010   113 H    0.967
                            22 C    0.952
    26   6 C    3.995 --    25 C    1.010   115 H    0.983   116 H    0.983
                           114 H    0.979
    27   6 C    3.998 --    25 C    1.012   117 H    0.982   119 H    0.978
                           118 H    0.977
    28   7 N    2.994 --    29 C    1.021   121 H    0.959   120 H    0.959
    29   6 C    3.991 --    28 N    1.021    32 C    0.966   122 H    0.956
                            30 C    0.945
    30   6 C    3.945 --    31 O    1.641    34 N    1.293    29 C    0.945
    31   8 O    1.950 --    30 C    1.641    34 N    0.194
    32   6 C    3.963 --    33 O    1.006   124 H    0.973   123 H    0.969
                            29 C    0.966
    33   8 O    1.930 --    32 C    1.006   125 H    0.870
    34   7 N    3.473 --    30 C    1.293    35 C    0.988   126 H    0.927
                            31 O    0.194
    35   6 C    3.964 --    34 N    0.988    38 C    0.972    36 C    0.932
                           127 H    0.921
    36   6 C    3.898 --    37 O    1.601    42 N    1.285    35 C    0.932
    37   8 O    1.908 --    36 C    1.601    42 N    0.183
    38   6 C    3.984 --    39 C    0.989   129 H    0.973    35 C    0.972
                           128 H    0.971
    39   6 C    3.994 --    40 C    1.010    41 C    1.008    38 C    0.989
                           130 H    0.971
    40   6 C    3.996 --    39 C    1.010   131 H    0.987   133 H    0.985
                           132 H    0.985
    41   6 C    3.993 --    39 C    1.008   134 H    0.987   135 H    0.985
                           136 H    0.983
    42   7 N    3.420 --    36 C    1.285    43 C    0.975   137 H    0.842
                            37 O    0.183
    43   6 C    3.965 --    42 N    0.975    46 C    0.964   138 H    0.948
                            44 C    0.938
    44   6 C    3.934 --    45 O    1.565    52 N    1.317    43 C    0.938
    45   8 O    1.920 --    44 C    1.565    52 N    0.186
    46   6 C    3.984 --    47 C    0.993   140 H    0.970   139 H    0.969
                            43 C    0.964
    47   6 C    3.913 --    49 C    1.554    48 N    1.116    46 C    0.993
                            50 C    0.124
    48   7 N    3.479 --    50 C    1.251    47 C    1.116   186 H    0.875
    49   6 C    3.972 --    47 C    1.554    51 N    1.289   141 H    0.965
    50   6 C    2.902 --    51 N    1.460    48 N    1.251    47 C    0.124
    51   7 N    2.936 --    50 C    1.460    49 C    1.289
    52   7 N    3.516 --    44 C    1.317    53 C    0.961    58 C    0.959
                            45 O    0.186
    53   6 C    3.962 --    56 C    0.978    52 N    0.961   142 H    0.950
                            54 C    0.942
    54   6 C    3.949 --    55 O    1.619    59 N    1.300    53 C    0.942
    55   8 O    1.950 --    54 C    1.619    59 N    0.193
    56   6 C    3.988 --    57 C    0.998    53 C    0.978   143 H    0.976
                           144 H    0.976
    57   6 C    3.993 --    58 C    1.018    56 C    0.998   145 H    0.976
                           146 H    0.972
    58   6 C    3.963 --    57 C    1.018   147 H    0.964   148 H    0.961
                            52 N    0.959
    59   7 N    3.452 --    54 C    1.300    60 C    0.967   149 H    0.843
                            55 O    0.193
    60   6 C    3.960 --    63 C    0.978    59 N    0.967   150 H    0.950
                            61 C    0.946
    61   6 C    3.946 --    62 O    1.640    67 N    1.286    60 C    0.946
    62   8 O    1.949 --    61 C    1.640    67 N    0.195
    63   6 C    3.988 --    64 C    0.995    60 C    0.978   152 H    0.971
                           151 H    0.969
    64   6 C    3.995 --    66 C    1.012    65 C    1.001    63 C    0.995
                           153 H    0.971
    65   6 C    3.995 --    64 C    1.001   154 H    0.988   156 H    0.988
                           155 H    0.984
    66   6 C    3.995 --    64 C    1.012   158 H    0.985   157 H    0.985
                           159 H    0.976
    67   7 N    3.456 --    61 C    1.286    68 C    0.968   160 H    0.925
                            62 O    0.195
    68   6 C    3.960 --    71 C    0.978    67 N    0.968    69 C    0.947
                           161 H    0.946
    69   6 C    3.945 --    70 O    1.597    75 N    1.324    68 C    0.947
    70   8 O    1.913 --    69 C    1.597    75 N    0.202
    71   6 C    3.990 --    72 C    0.996    68 C    0.978   163 H    0.971
                           162 H    0.970
    72   6 C    3.995 --    74 C    1.010    73 C    1.003    71 C    0.996
                           164 H    0.965
    73   6 C    3.994 --    72 C    1.003   165 H    0.987   167 H    0.984
                           166 H    0.966
    74   6 C    3.995 --    72 C    1.010   168 H    0.986   169 H    0.986
                           170 H    0.981
    75   7 N    3.480 --    69 C    1.324    76 C    0.966   171 H    0.903
                            70 O    0.202
    76   6 C    3.959 --    79 C    0.972    77 C    0.970    75 N    0.966
                           172 H    0.957
    77   6 C    3.666 --    78 O    1.686    76 C    0.970   173 H    0.883
    78   8 O    1.804 --    77 C    1.686
    79   6 C    3.979 --    80 C    1.004   174 H    0.977   175 H    0.972
                            76 C    0.972
    80   6 C    3.995 --    79 C    1.004    81 C    0.967   177 H    0.966
                           176 H    0.950
    81   6 C    3.944 --    82 O    1.627    83 N    1.319    80 C    0.967
    82   8 O    1.921 --    81 C    1.627    83 N    0.194
    83   7 N    3.409 --    81 C    1.319   178 H    0.931   179 H    0.926
                            82 O    0.194
    84   1 H    1.000 --   180 H    0.906
    85   1 H    1.000 --   181 H    0.975
    86   1 H    1.000 --   182 H    0.992
    87   1 H    1.000 --   183 H    0.983
    88   1 H    1.000 --   184 H    0.995
    89   1 H    1.000 --   185 H    0.998
    90   1 H    0.975 --     1 N    0.963
    91   1 H    0.973 --     1 N    0.958
    92   1 H    0.999 --     2 C    0.965
    93   1 H    0.998 --     5 C    0.964
    94   1 H    0.996 --     5 C    0.976
    95   1 H    0.994 --     6 C    0.973
    96   1 H    0.995 --     6 C    0.954
    97   1 H    0.955 --     9 N    0.899
    98   1 H    0.939 --     9 N    0.831
    99   1 H    0.955 --    10 N    0.923
   100   1 H    0.993 --    11 C    0.950
   101   1 H    0.999 --    12 C    0.952
   102   1 H    0.995 --    14 C    0.968
   103   1 H    0.997 --    14 C    0.970
   104   1 H    0.999 --    16 C    0.973
   105   1 H    0.999 --    17 C    0.972
   106   1 H    0.998 --    18 C    0.974
   107   1 H    0.998 --    19 C    0.975
   108   1 H    0.999 --    20 C    0.975
   109   1 H    0.981 --    21 N    0.969
   110   1 H    0.976 --    21 N    0.953
   111   1 H    0.999 --    22 C    0.964
   112   1 H    0.999 --    23 C    0.958
   113   1 H    0.998 --    25 C    0.967
   114   1 H    0.998 --    26 C    0.979
   115   1 H    0.999 --    26 C    0.983
   116   1 H    0.997 --    26 C    0.983
   117   1 H    1.000 --    27 C    0.982
   118   1 H    0.997 --    27 C    0.977
   119   1 H    0.999 --    27 C    0.978
   120   1 H    0.974 --    28 N    0.959
   121   1 H    0.973 --    28 N    0.959
   122   1 H    1.000 --    29 C    0.956
   123   1 H    0.998 --    32 C    0.969
   124   1 H    0.997 --    32 C    0.973
   125   1 H    0.883 --    33 O    0.870
   126   1 H    0.960 --    34 N    0.927
   127   1 H    0.993 --    35 C    0.921
   128   1 H    0.997 --    38 C    0.971
   129   1 H    0.997 --    38 C    0.973
   130   1 H    0.999 --    39 C    0.971
   131   1 H    0.998 --    40 C    0.987
   132   1 H    0.999 --    40 C    0.985
   133   1 H    0.998 --    40 C    0.985
   134   1 H    0.998 --    41 C    0.987
   135   1 H    0.997 --    41 C    0.985
   136   1 H    0.998 --    41 C    0.983
   137   1 H    0.945 --    42 N    0.842
   138   1 H    0.997 --    43 C    0.948
   139   1 H    1.000 --    46 C    0.969
   140   1 H    0.999 --    46 C    0.970
   141   1 H    0.994 --    49 C    0.965
   142   1 H    0.993 --    53 C    0.950
   143   1 H    0.995 --    56 C    0.976
   144   1 H    0.996 --    56 C    0.976
   145   1 H    0.996 --    57 C    0.976
   146   1 H    0.994 --    57 C    0.972
   147   1 H    0.995 --    58 C    0.964
   148   1 H    0.996 --    58 C    0.961
   149   1 H    0.947 --    59 N    0.843
   150   1 H    0.993 --    60 C    0.950
   151   1 H    0.998 --    63 C    0.969
   152   1 H    0.995 --    63 C    0.971
   153   1 H    0.999 --    64 C    0.971
   154   1 H    0.998 --    65 C    0.988
   155   1 H    0.998 --    65 C    0.984
   156   1 H    0.998 --    65 C    0.988
   157   1 H    0.998 --    66 C    0.985
   158   1 H    0.998 --    66 C    0.985
   159   1 H    0.999 --    66 C    0.976
   160   1 H    0.963 --    67 N    0.925
   161   1 H    0.993 --    68 C    0.946
   162   1 H    0.996 --    71 C    0.970
   163   1 H    0.998 --    71 C    0.971
   164   1 H    0.999 --    72 C    0.965
   165   1 H    0.998 --    73 C    0.987
   166   1 H    0.999 --    73 C    0.966
   167   1 H    0.997 --    73 C    0.984
   168   1 H    0.998 --    74 C    0.986
   169   1 H    0.998 --    74 C    0.986
   170   1 H    0.998 --    74 C    0.981
   171   1 H    0.955 --    75 N    0.903
   172   1 H    0.995 --    76 C    0.957
   173   1 H    0.996 --    77 C    0.883
   174   1 H    0.996 --    79 C    0.977
   175   1 H    0.996 --    79 C    0.972
   176   1 H    0.995 --    80 C    0.950
   177   1 H    0.997 --    80 C    0.966
   178   1 H    0.956 --    83 N    0.931
   179   1 H    0.946 --    83 N    0.926
   180   1 H    1.000 --    84 H    0.906
   181   1 H    1.000 --    85 H    0.975
   182   1 H    1.000 --    86 H    0.992
   183   1 H    1.000 --    87 H    0.983
   184   1 H    1.000 --    88 H    0.995
   185   1 H    1.000 --    89 H    0.998
   186   1 H    0.987 --    48 N    0.875
 ---------------------------------------------------------------------------

Topologies differ in total number of bonds
Writing topology from bond orders to xtbtopo.mol

molecular dipole:
                 x           y           z       tot (Debye)
 q only:      -32.564     -38.168     -84.100
   full:      -34.204     -39.134     -83.593     250.194
molecular quadrupole (traceless):
                xx          xy          yy          xz          yz          zz
 q only:     1600.493    -794.721    1302.136   -2107.507   -2356.598   -2902.629
  q+dip:     1556.149    -853.334    1268.019   -2219.560   -2392.558   -2824.168
   full:     1553.427    -853.926    1269.582   -2218.603   -2391.454   -2823.008


           -------------------------------------------------
          | TOTAL ENERGY             -266.240772151267 Eh   |
          | GRADIENT NORM               0.750757434628 Eh/α |
          | HOMO-LUMO GAP               0.009573719707 eV   |
           -------------------------------------------------
########################################################################
[WARNING] Runtime exception occurred
-3- restart_readRestart: Dimension missmatch in restart file.
-2- restart_readRestart: Multiplicity missmatch in restart file.
-1- restart_readRestart: Number of electron missmatch in restart file.
########################################################################

------------------------------------------------------------------------
 * finished run on 2025/05/05 at 16:38:33.573     
------------------------------------------------------------------------
 total:
 * wall-time:     0 d,  0 h,  0 min,  1.216 sec
 *  cpu-time:     0 d,  0 h,  0 min, 34.576 sec
 * ratio c/w:    28.441 speedup
 SCF:
 * wall-time:     0 d,  0 h,  0 min,  1.200 sec
 *  cpu-time:     0 d,  0 h,  0 min, 34.182 sec
 * ratio c/w:    28.489 speedup

