      -----------------------------------------------------------      
     |                   =====================                   |     
     |                           x T B                           |     
     |                   =====================                   |     
     |                         S. Grimme                         |     
     |          Mulliken Center for Theoretical Chemistry        |     
     |                    University of Bonn                     |     
      -----------------------------------------------------------      

   * xtb version 6.7.1 (edcfbbe) compiled by 'conda@afd1a870197c' on 2025-04-11

   xtb is free software: you can redistribute it and/or modify it under
   the terms of the GNU Lesser General Public License as published by
   the Free Software Foundation, either version 3 of the License, or
   (at your option) any later version.
   
   xtb is distributed in the hope that it will be useful,
   but WITHOUT ANY WARRANTY; without even the implied warranty of
   MERCHANTABILITY or FITNESS FOR A PARTICULAR PURPOSE.  See the
   GNU Lesser General Public License for more details.
   
   Cite this work as:
   * C. Bannwarth, E. Caldeweyher, S. Ehlert, A. Hansen, P. Pracht,
     J. Seibert, S. Spicher, S. Grimme, WIREs Comput. Mol. Sci., 2020, 11,
     e01493. DOI: 10.1002/wcms.1493
   
   for GFN2-xTB:
   * C. Bannwarth, S. Ehlert and S. Grimme., J. Chem. Theory Comput., 2019,
     15, 1652-1671. DOI: 10.1021/acs.jctc.8b01176
   for GFN1-xTB:
   * S. Grimme, C. Bannwarth, P. Shushkov, J. Chem. Theory Comput., 2017,
     13, 1989-2009. DOI: 10.1021/acs.jctc.7b00118
   for GFN0-xTB:
   * P. Pracht, E. Caldeweyher, S. Ehlert, S. Grimme, ChemRxiv, 2019, preprint.
     DOI: 10.26434/chemrxiv.8326202.v1
   for GFN-FF:
   * S. Spicher and S. Grimme, Angew. Chem. Int. Ed., 2020, 59, 15665-15673.
     DOI: 10.1002/anie.202004239
   
   for ALPB and GBSA implicit solvation:
   * S. Ehlert, M. Stahn, S. Spicher, S. Grimme, J. Chem. Theory Comput.,
     2021, 17, 4250-4261. DOI: 10.1021/acs.jctc.1c00471
   
   for ddCOSMO and CPCM-X implicit solvation:
   * M. Stahn, S. Ehlert, S. Grimme, J. Phys. Chem. A,
     2023, XX, XXXX-XXXX. DOI: 10.1021/acs.jpca.3c04382
   
   for DFT-D4:
   * E. Caldeweyher, C. Bannwarth and S. Grimme, J. Chem. Phys., 2017,
     147, 034112. DOI: 10.1063/1.4993215
   * E. Caldeweyher, S. Ehlert, A. Hansen, H. Neugebauer, S. Spicher,
     C. Bannwarth and S. Grimme, J. Chem. Phys., 2019, 150, 154122.
     DOI: 10.1063/1.5090222
   * E. Caldeweyher, J.-M. Mewes, S. Ehlert and S. Grimme, Phys. Chem. Chem. Phys.
     2020, 22, 8499-8512. DOI: 10.1039/D0CP00502A
   
   for sTDA-xTB:
   * S. Grimme and C. Bannwarth, J. Chem. Phys., 2016, 145, 054103.
     DOI: 10.1063/1.4959605
   
   in the mass-spec context:
   * V. Asgeirsson, C. Bauer and S. Grimme, Chem. Sci., 2017, 8, 4879.
     DOI: 10.1039/c7sc00601b
   * J. Koopman and S. Grimme, ACS Omega 2019, 4, 12, 15120-15133.
     DOI: 10.1021/acsomega.9b02011
   
   for metadynamics refer to:
   * S. Grimme, J. Chem. Theory Comput., 2019, 155, 2847-2862
     DOI: 10.1021/acs.jctc.9b00143
   
   for SPH calculations refer to:
   * S. Spicher and S. Grimme, J. Chem. Theory Comput., 2021, 17, 1701-1714
     DOI: 10.1021/acs.jctc.0c01306
   
   for ONIOM refer to:
   * C. Plett, A. Katbashev, S. Ehlert, S. Grimme, M. Bursch,
     Phys. Chem. Chem. Phys., 2023, 25, 17860-17868. DOI: 10.1039/D3CP02178E
   
   for DIPRO refer to:
   * J. Kohn, N. Gildemeister, S. Grimme, D. Fazzi, A. Hansen,
     J. Chem. Phys., 2023, just accepted.
   
   for PTB refer to:
   * S. Grimme, M. Mueller, A. Hansen, J. Chem. Phys., 2023, 158, 124111.
     DOI: 10.1063/5.0137838
   
   with help from (in alphabetical order)
   P. Atkinson, C. Bannwarth, F. Bohle, G. Brandenburg, E. Caldeweyher
   M. Checinski, S. Dohm, S. Ehlert, S. Ehrlich, I. Gerasimov, C. Hölzer
   A. Katbashev, J. Kohn, J. Koopman, C. Lavigne, S. Lehtola, F. März, M. Müller,
   F. Musil, H. Neugebauer, J. Pisarek, C. Plett, P. Pracht, F. Pultar,
   J. Seibert, P. Shushkov, S. Spicher, M. Stahn, M. Steiner, T. Strunk,
   J. Stückrath, T. Rose, and J. Unsleber
   
 * started run on 2025/05/05 at 16:39:23.096     
   ID    Z sym.   atoms
    1    7 N      1, 9, 10, 18, 26, 33, 34, 40, 43, 44, 50, 58, 64, 72, 73,
                  81, 88, 90-92, 99, 106, 108, 109
    2    6 C      2, 3, 5-7, 11, 12, 14-17, 19, 20, 22, 23, 25, 27, 28, 30,
                  31, 35, 36, 38, 39, 41, 42, 45, 46, 48, 51, 52, 54-57,
                  59-63, 65, 66, 68-71, 74, 75, 77, 78, 82, 83, 85-87, 89,
                  93, 94, 96-98, 100, 101, 103-105, 107
    3    8 O      4, 8, 13, 21, 29, 32, 37, 47, 53, 67, 76, 79, 80, 84, 95,
                  102
    4   16 S      24, 49
    5    1 H      110-259

           -------------------------------------------------
          |                Calculation Setup                |
           -------------------------------------------------

          program call               : xtb /tmp/tmpclml1r6h/HIE/input.xyz --alpb ether --chrg 5 --input /tmp/tmpclml1r6h/HIE/constraints.inp --gfn 2
          hostname                   : fedora
          coordinate file            : /tmp/tmpclml1r6h/HIE/input.xyz
          omp threads                :                    32


molecular fragmentation (1/2 indicates fragments):
111111111111111111111111111111111111111111111111111111111111111111111111
222222222222222222222222222222222222222222222222222222222111111111111111
111111111111111111111111111111111111111111111111112222222222222222222222
2222222222222222222222222222222222222111221
# atoms in fragment 1/2:   141   118
 fragment masses (1/2) :     1042.26      569.93
CMA distance (Bohr)    :  15.146
constraining FC (au)   :  0.0500

           -------------------------------------------------
          |                 G F N 2 - x T B                 |
           -------------------------------------------------

        Reference                      10.1021/acs.jctc.8b01176
      * Hamiltonian:
        H0-scaling (s, p, d)           1.850000    2.230000    2.230000
        zeta-weighting                 0.500000
      * Dispersion:
        s8                             2.700000
        a1                             0.520000
        a2                             5.000000
        s9                             5.000000
      * Repulsion:
        kExp                           1.500000    1.000000
        rExp                           1.000000
      * Coulomb:
        alpha                          2.000000
        third order                    shell-resolved
        anisotropic                    true
        a3                             3.000000
        a5                             4.000000
        cn-shift                       1.200000
        cn-exp                         4.000000
        max-rad                        5.000000

      * Solvation model:               ALPB
        Solvent                        ether
        Parameter file                 internal GFN2-xTB/ALPB
        Dielectric constant                4.3300E+00
        Reference state                gsolv [1 M gas/solution]
        Free energy shift                  4.9534E-03 Eh       3.1083E+00 kcal/mol
        Temperature                        2.9815E+02 K
        Density                            7.1300E-01 kg/L
        Solvent mass                       7.4120E+01 g/mol
        Interaction kernel             P16
        Born radius scaling (c1)           1.5847E+00
        Born radii integrator          GBOBC
        Born offset                        0.0000E+00 a0       0.0000E+00 AA
        H-bond correction              true
        Ion screening                  false
        Surface tension                    1.0000E-05 Eh       1.5569E+01 dyn/cm
        Grid points                               230 per atom

          ...................................................
          :                      SETUP                      :
          :.................................................:
          :  # basis functions                 598          :
          :  # atomic orbitals                 596          :
          :  # shells                          370          :
          :  # electrons                       641          :
          :  max. iterations                   250          :
          :  Hamiltonian                  GFN2-xTB          :
          :  restarted?                      false          :
          :  GBSA solvation                   true          :
          :  PC potential                    false          :
          :  electronic temp.          300.0000000     K    :
          :  accuracy                    1.0000000          :
          :  -> integral cutoff          0.2500000E+02      :
          :  -> integral neglect         0.1000000E-07      :
          :  -> SCF convergence          0.1000000E-05 Eh   :
          :  -> wf. convergence          0.1000000E-03 e    :
          :  Broyden damping             0.4000000          :
          :  net charge                          5          :
          :  unpaired electrons                  0          :
          ...................................................

 iter      E             dE          RMSdq      gap      omega  full diag
   1   -361.4840179 -0.361484E+03  0.451E+00    0.01       0.0  T
   2   -361.3416809  0.142337E+00  0.350E+00    0.26       1.0  T
   3   -362.8817811 -0.154010E+01  0.299E+00    0.17       1.0  T
   4   -363.4881135 -0.606332E+00  0.249E+00    0.03       1.0  T
   5   -363.4832778  0.483572E-02  0.185E+00    0.02       1.0  T
   6   -362.7424130  0.740865E+00  0.178E+00    0.08       1.0  T
   7   -363.1623373 -0.419924E+00  0.171E+00    0.25       1.0  T
   8   -362.8502145  0.312123E+00  0.180E+00    0.32       1.0  T
   9   -363.7273919 -0.877177E+00  0.173E+00    0.10       1.0  T
  10   -363.7773918 -0.499999E-01  0.115E+00    0.16       1.0  T
  11   -364.0584344 -0.281043E+00  0.746E-01    0.01       1.0  T
  12   -364.1638526 -0.105418E+00  0.519E-01    0.04       1.0  T
  13   -363.8253998  0.338453E+00  0.100E+00    0.06       1.0  T
  14   -363.9996196 -0.174220E+00  0.140E+00    0.07       1.0  T
  15   -364.0444960 -0.448764E-01  0.765E-01    0.11       1.0  T
  16   -363.9816447  0.628513E-01  0.871E-01    0.02       1.0  T
  17   -364.1113364 -0.129692E+00  0.612E-01    0.05       1.0  T
  18   -364.0658592  0.454772E-01  0.716E-01    0.07       1.0  T
  19   -364.0440827  0.217765E-01  0.674E-01    0.03       1.0  T
  20   -364.1351432 -0.910605E-01  0.466E-01    0.01       1.0  T
  21   -364.1762737 -0.411304E-01  0.287E-01    0.02       1.0  T
  22   -364.1902106 -0.139369E-01  0.261E-01    0.02       1.0  T
  23   -364.0855236  0.104687E+00  0.837E-01    0.01       1.0  T
  24   -364.1939134 -0.108390E+00  0.316E-01    0.02       1.0  T
  25   -364.1972487 -0.333529E-02  0.179E-01    0.04       1.0  T
  26   -364.2034391 -0.619044E-02  0.144E-01    0.03       1.0  T
  27   -364.2064214 -0.298233E-02  0.108E-01    0.03       1.0  T
  28   -364.1936617  0.127597E-01  0.193E-01    0.03       1.0  T
  29   -364.1961172 -0.245551E-02  0.192E-01    0.04       1.0  T
  30   -364.2033391 -0.722187E-02  0.128E-01    0.03       1.0  T
  31   -364.2038038 -0.464687E-03  0.123E-01    0.04       1.0  T
  32   -364.2087604 -0.495661E-02  0.509E-02    0.03       1.0  T
  33   -364.2093138 -0.553443E-03  0.359E-02    0.03       1.0  T
  34   -364.2093866 -0.728319E-04  0.298E-02    0.03       1.0  T
  35   -364.2096884 -0.301713E-03  0.210E-02    0.03       1.0  T
  36   -364.2097149 -0.265597E-04  0.106E-02    0.03       1.0  T
  37   -364.2097295 -0.145669E-04  0.612E-03    0.03       1.0  T
  38   -364.2097363 -0.685143E-05  0.451E-03    0.03       1.4  T
  39   -364.2097396 -0.327501E-05  0.129E-03    0.03       4.8  T
  40   -364.2097401 -0.462091E-06  0.931E-04    0.03       6.7  T
  41   -364.2097402 -0.119424E-06  0.479E-04    0.03      13.0  T

   *** convergence criteria satisfied after 41 iterations ***

         #    Occupation            Energy/Eh            Energy/eV
      -------------------------------------------------------------
         1        2.0000           -0.8216053             -22.3570
       ...           ...                  ...                  ...
       315        1.9627           -0.4656414             -12.6707
       316        1.8828           -0.4645069             -12.6399
       317        1.8703           -0.4644034             -12.6371
       318        1.8198           -0.4640609             -12.6277
       319        1.5952           -0.4631483             -12.6029
       320        1.5600           -0.4630451             -12.6001
       321        1.2226           -0.4622432             -12.5783 (HOMO)
       322        0.7250           -0.4612327             -12.5508 (LUMO)
       323        0.4014           -0.4604279             -12.5289
       324                         -0.3816083             -10.3841
       325                         -0.3657267              -9.9519
       326                         -0.3624957              -9.8640
       ...                                ...                  ...
       596                          1.3835209              37.6475
      -------------------------------------------------------------
                  HL-Gap            0.0010105 Eh            0.0275 eV
             Fermi-level           -0.4617933 Eh          -12.5660 eV

 SCC (total)                   0 d,  0 h,  0 min,  2.003 sec
 SCC setup                      ...        0 min,  0.004 sec (  0.200%)
 Dispersion                     ...        0 min,  0.015 sec (  0.759%)
 classical contributions        ...        0 min,  0.000 sec (  0.017%)
 integral evaluation            ...        0 min,  0.025 sec (  1.237%)
 iterations                     ...        0 min,  1.871 sec ( 93.416%)
 molecular gradient             ...        0 min,  0.080 sec (  4.005%)
 printout                       ...        0 min,  0.007 sec (  0.361%)

         :::::::::::::::::::::::::::::::::::::::::::::::::::::
         ::                     SUMMARY                     ::
         :::::::::::::::::::::::::::::::::::::::::::::::::::::
         :: total energy            -357.873793713673 Eh    ::
         :: total w/o Gsasa/hb      -357.757802722552 Eh    ::
         :: gradient norm              1.325682888866 Eh/a0 ::
         :: HOMO-LUMO gap              0.027498445358 eV    ::
         ::.................................................::
         :: SCC energy              -364.182647114901 Eh    ::
         :: -> isotropic ES            1.623094994042 Eh    ::
         :: -> anisotropic ES          0.033222576085 Eh    ::
         :: -> anisotropic XC          0.240943983721 Eh    ::
         :: -> dispersion             -0.298528684244 Eh    ::
         :: -> Gsolv                  -0.864417124966 Eh    ::
         ::    -> Gelec               -0.748426133845 Eh    ::
         ::    -> Gsasa               -0.085665074921 Eh    ::
         ::    -> Ghb                 -0.035279353777 Eh    ::
         ::    -> Gshift               0.004953437577 Eh    ::
         :: repulsion energy           6.308853401229 Eh    ::
         :: add. restraining           0.000000000000 Eh    ::
         :: total charge               5.000000000432 e     ::
         :::::::::::::::::::::::::::::::::::::::::::::::::::::

           -------------------------------------------------
          |                Property Printout                |
           -------------------------------------------------

    * Orbital Energies and Occupations

         #    Occupation            Energy/Eh            Energy/eV
      -------------------------------------------------------------
         1        2.0000           -0.8216053             -22.3570
       ...           ...                  ...                  ...
       309        2.0000           -0.4721057             -12.8466
       310        1.9998           -0.4706244             -12.8063
       311        1.9996           -0.4699221             -12.7872
       312        1.9981           -0.4684675             -12.7477
       313        1.9924           -0.4671686             -12.7123
       314        1.9705           -0.4658674             -12.6769
       315        1.9627           -0.4656414             -12.6707
       316        1.8828           -0.4645069             -12.6399
       317        1.8703           -0.4644034             -12.6371
       318        1.8198           -0.4640609             -12.6277
       319        1.5952           -0.4631483             -12.6029
       320        1.5600           -0.4630451             -12.6001
       321        1.2226           -0.4622432             -12.5783 (HOMO)
       322        0.7250           -0.4612327             -12.5508 (LUMO)
       323        0.4014           -0.4604279             -12.5289
       324                         -0.3816083             -10.3841
       325                         -0.3657267              -9.9519
       326                         -0.3624957              -9.8640
       327                         -0.3323890              -9.0448
       328                         -0.3253127              -8.8522
       329                         -0.3231449              -8.7932
       330                         -0.3194464              -8.6926
       331                         -0.3182848              -8.6610
       332                         -0.3134164              -8.5285
       ...                                ...                  ...
       596                          1.3835209              37.6475
      -------------------------------------------------------------
                  HL-Gap            0.0010105 Eh            0.0275 eV
             Fermi-level           -0.4617933 Eh          -12.5660 eV

     #   Z          covCN         q      C6AA      α(0)
     1   7 N        2.629    -0.353    29.106     8.013
     2   6 C        3.786     0.024    20.187     6.400
     3   6 C        2.755     0.259    22.641     7.792
     4   8 O        0.858    -0.493    23.638     6.519
     5   6 C        3.812    -0.072    21.864     6.656
     6   6 C        3.808    -0.102    22.436     6.743
     7   6 C        2.743     0.285    22.173     7.710
     8   8 O        0.859    -0.471    23.151     6.451
     9   7 N        2.640    -0.275    27.118     7.734
    10   7 N        2.685    -0.171    24.707     7.382
    11   6 C        3.802     0.010    20.408     6.432
    12   6 C        2.766     0.268    22.474     7.764
    13   8 O        0.859    -0.486    23.470     6.495
    14   6 C        3.861    -0.029    21.050     6.525
    15   6 C        3.812    -0.076    21.933     6.666
    16   6 C        3.763    -0.123    22.897     6.821
    17   6 C        3.759    -0.122    22.879     6.819
    18   7 N        2.688    -0.164    24.556     7.360
    19   6 C        3.803     0.017    20.295     6.414
    20   6 C        2.762     0.272    22.403     7.751
    21   8 O        0.861    -0.482    23.391     6.485
    22   6 C        3.849    -0.094    22.251     6.710
    23   6 C        3.797    -0.056    21.582     6.615
    24  16 S        1.990     0.052   138.929    19.838
    25   6 C        3.752    -0.105    22.576     6.776
    26   7 N        2.687    -0.167    24.617     7.369
    27   6 C        3.811     0.025    20.144     6.389
    28   6 C        2.758     0.274    22.362     7.744
    29   8 O        0.859    -0.491    23.576     6.510
    30   6 C        3.813    -0.110    22.589     6.765
    31   6 C        2.745     0.286    22.149     7.706
    32   8 O        0.860    -0.473    23.190     6.457
    33   7 N        2.641    -0.282    27.281     7.757
    34   7 N        2.690    -0.168    24.627     7.370
    35   6 C        3.799     0.021    20.228     6.404
    36   6 C        2.748     0.271    22.428     7.754
    37   8 O        0.859    -0.472    23.168     6.453
    38   6 C        3.812    -0.088    22.171     6.702
    39   6 C        3.074     0.066    26.441     8.431
    40   7 N        1.984    -0.220    26.608     7.650
    41   6 C        3.042    -0.044    29.056     8.841
    42   6 C        2.086     0.065    29.284     8.743
    43   7 N        2.833    -0.061    22.425     7.033
    44   7 N        2.682    -0.182    24.947     7.418
    45   6 C        3.806     0.021    20.222     6.402
    46   6 C        2.757     0.259    22.642     7.792
    47   8 O        0.856    -0.484    23.428     6.490
    48   6 C        3.800    -0.024    21.001     6.525
    49  16 S        1.909    -0.172   148.350    20.500
    50   7 N        2.687    -0.140    24.041     7.282
    51   6 C        3.795     0.020    20.241     6.407
    52   6 C        2.768     0.279    22.276     7.730
    53   8 O        0.860    -0.453    22.764     6.397
    54   6 C        3.810    -0.082    22.064     6.686
    55   6 C        3.041     0.058    26.653     8.468
    56   6 C        3.032     0.031    27.284     8.568
    57   6 C        3.114    -0.009    28.078     8.680
    58   7 N        1.914    -0.186    25.842     7.537
    59   6 C        3.076     0.079    26.151     8.384
    60   6 C        2.910    -0.007    28.193     8.707
    61   6 C        2.906    -0.014    28.361     8.732
    62   6 C        2.914    -0.034    28.835     8.805
    63   6 C        2.925    -0.025    28.617     8.773
    64   7 N        2.686    -0.134    23.910     7.262
    65   6 C        3.808     0.019    20.243     6.405
    66   6 C        2.758     0.193    23.879     8.002
    67   8 O        0.856    -0.369    21.068     6.154
    68   6 C        3.806    -0.089    22.187     6.706
    69   6 C        3.803    -0.092    22.245     6.715
    70   6 C        3.803    -0.101    22.425     6.742
    71   6 C        3.732    -0.058    21.705     6.650
    72   7 N        3.484    -0.177    24.824     7.400
    73   7 N        2.626    -0.311    28.009     7.860
    74   6 C        3.782     0.021    20.240     6.409
    75   6 C        2.747     0.274    22.368     7.744
    76   8 O        0.859    -0.446    22.630     6.378
    77   6 C        3.801    -0.079    22.008     6.679
    78   6 C        2.683     0.377    20.620     7.431
    79   8 O        0.856    -0.469    23.113     6.446
    80   8 O        0.856    -0.464    23.009     6.431
    81   7 N        2.684    -0.146    24.166     7.301
    82   6 C        3.793     0.015    20.333     6.421
    83   6 C        2.762     0.263    22.568     7.780
    84   8 O        0.859    -0.465    23.016     6.432
    85   6 C        3.821    -0.077    21.961     6.669
    86   6 C        3.822    -0.090    22.198     6.705
    87   6 C        3.752    -0.029    21.155     6.559
    88   7 N        2.711    -0.137    23.964     7.271
    89   6 C        2.738     0.233    23.117     7.872
    90   7 N        2.654    -0.261    26.773     7.685
    91   7 N        2.656    -0.268    26.938     7.708
    92   7 N        2.751    -0.068    22.558     7.054
    93   6 C        3.830     0.017    20.262     6.405
    94   6 C        2.759     0.190    23.925     8.010
    95   8 O        0.856    -0.350    20.701     6.100
    96   6 C        3.838    -0.074    21.882     6.655
    97   6 C        3.836    -0.079    21.973     6.669
    98   6 C        3.768    -0.023    21.022     6.534
    99   7 N        2.633    -0.337    28.684     7.954
   100   6 C        3.791     0.033    20.026     6.373
   101   6 C        2.772     0.103    25.705     8.304
   102   8 O        0.856    -0.309    19.938     5.987
   103   6 C        3.818    -0.085    22.105     6.691
   104   6 C        3.813    -0.100    22.403     6.737
   105   6 C        3.747    -0.037    21.308     6.584
   106   7 N        2.699    -0.133    23.888     7.259
   107   6 C        2.738     0.224    23.282     7.900
   108   7 N        2.648    -0.262    26.790     7.687
   109   7 N        2.647    -0.265    26.870     7.699
   110   1 H        0.980     0.001     3.027     2.719
   111   1 H        0.980    -0.000     3.053     2.730
   112   1 H        0.980     0.010     2.886     2.654
   113   1 H        0.980     0.032     2.544     2.492
   114   1 H        0.980     0.004     2.983     2.699
   115   1 H        0.980     0.013     2.841     2.634
   116   1 H        0.980     0.035     2.508     2.475
   117   1 H        0.980    -0.008     3.187     2.790
   118   1 H        0.980    -0.014     3.298     2.838
   119   1 H        0.980     0.019     2.747     2.590
   120   1 H        0.980    -0.023     3.477     2.914
   121   1 H        0.980     0.020     2.732     2.583
   122   1 H        0.980    -0.026     3.543     2.941
   123   1 H        0.980     0.005     2.958     2.687
   124   1 H        0.980     0.024     2.659     2.548
   125   1 H        0.980    -0.013     3.284     2.832
   126   1 H        0.980    -0.005     3.132     2.766
   127   1 H        0.980    -0.002     3.079     2.742
   128   1 H        0.980    -0.012     3.273     2.827
   129   1 H        0.980    -0.011     3.255     2.819
   130   1 H        0.860     0.158     1.351     1.821
   131   1 H        0.860     0.183     1.198     1.715
   132   1 H        0.926     0.048     2.339     2.391
   133   1 H        0.927     0.069     2.096     2.264
   134   1 H        0.927     0.077     2.013     2.218
   135   1 H        0.927     0.081     1.964     2.192
   136   1 H        0.927     0.074     2.044     2.236
   137   1 H        0.861     0.235     0.944     1.522
   138   1 H        0.861     0.245     0.904     1.489
   139   1 H        0.861     0.223     0.998     1.565
   140   1 H        0.927     0.097     1.815     2.106
   141   1 H        0.927     0.052     2.298     2.371
   142   1 H        0.927     0.047     2.359     2.402
   143   1 H        0.927     0.055     2.260     2.351
   144   1 H        0.927     0.054     2.276     2.359
   145   1 H        0.927     0.046     2.365     2.405
   146   1 H        0.927     0.062     2.179     2.308
   147   1 H        0.927     0.039     2.457     2.451
   148   1 H        0.927     0.048     2.349     2.397
   149   1 H        0.927     0.046     2.366     2.405
   150   1 H        0.861     0.218     1.018     1.581
   151   1 H        0.927     0.096     1.821     2.110
   152   1 H        0.927     0.086     1.921     2.168
   153   1 H        0.927     0.081     1.966     2.192
   154   1 H        0.927     0.092     1.858     2.131
   155   1 H        0.927     0.098     1.807     2.102
   156   1 H        0.927     0.098     1.807     2.102
   157   1 H        0.927     0.100     1.787     2.091
   158   1 H        0.927     0.099     1.797     2.096
   159   1 H        0.861     0.205     1.080     1.628
   160   1 H        0.926     0.092     1.856     2.130
   161   1 H        0.926     0.103     1.758     2.073
   162   1 H        0.927     0.081     1.969     2.194
   163   1 H        0.861     0.211     1.053     1.607
   164   1 H        0.861     0.236     0.939     1.518
   165   1 H        0.861     0.233     0.952     1.528
   166   1 H        0.927     0.111     1.688     2.032
   167   1 H        0.927     0.094     1.841     2.122
   168   1 H        0.927     0.105     1.736     2.060
   169   1 H        0.929     0.083     1.946     2.182
   170   1 H        0.861     0.239     0.926     1.508
   171   1 H        0.927     0.098     1.803     2.100
   172   1 H        0.927     0.097     1.815     2.107
   173   1 H        0.927     0.100     1.785     2.089
   174   1 H        0.921     0.195     1.123     1.657
   175   1 H        0.861     0.231     0.959     1.534
   176   1 H        0.927     0.127     1.562     1.954
   177   1 H        0.927     0.159     1.333     1.806
   178   1 H        0.927     0.112     1.678     2.026
   179   1 H        0.929     0.090     1.878     2.143
   180   1 H        0.929     0.082     1.956     2.187
   181   1 H        0.929     0.101     1.772     2.081
   182   1 H        0.929     0.086     1.914     2.163
   183   1 H        0.929     0.091     1.872     2.140
   184   1 H        0.861     0.229     0.969     1.542
   185   1 H        0.927     0.126     1.567     1.957
   186   1 H        0.929     0.092     1.857     2.131
   187   1 H        0.927     0.078     1.999     2.211
   188   1 H        0.927     0.082     1.962     2.191
   189   1 H        0.927     0.078     2.000     2.211
   190   1 H        0.927     0.079     1.991     2.207
   191   1 H        0.927     0.079     1.988     2.205
   192   1 H        0.926     0.077     2.014     2.219
   193   1 H        0.927     0.125     1.575     1.963
   194   1 H        0.927     0.122     1.599     1.977
   195   1 H        0.860     0.203     1.092     1.637
   196   1 H        0.860     0.189     1.166     1.692
   197   1 H        0.927     0.107     1.722     2.052
   198   1 H        0.927     0.105     1.738     2.062
   199   1 H        0.927     0.093     1.846     2.125
   200   1 H        0.861     0.222     1.000     1.566
   201   1 H        0.927     0.105     1.743     2.065
   202   1 H        0.927     0.072     2.060     2.245
   203   1 H        0.927     0.071     2.079     2.255
   204   1 H        0.927     0.067     2.118     2.276
   205   1 H        0.927     0.078     2.004     2.214
   206   1 H        0.927     0.096     1.820     2.110
   207   1 H        0.926     0.077     2.006     2.215
   208   1 H        0.861     0.246     0.900     1.486
   209   1 H        0.861     0.248     0.891     1.479
   210   1 H        0.861     0.253     0.870     1.461
   211   1 H        0.861     0.248     0.893     1.480
   212   1 H        0.927     0.098     1.799     2.097
   213   1 H        0.929     0.084     1.940     2.178
   214   1 H        0.927     0.074     2.038     2.232
   215   1 H        0.927     0.061     2.192     2.315
   216   1 H        0.926     0.072     2.058     2.243
   217   1 H        0.927     0.064     2.153     2.295
   218   1 H        0.927     0.071     2.069     2.249
   219   1 H        0.927     0.088     1.895     2.153
   220   1 H        0.860     0.207     1.072     1.622
   221   1 H        0.860     0.194     1.138     1.671
   222   1 H        0.927     0.105     1.741     2.063
   223   1 H        1.558     0.213     1.029     1.583
   224   1 H        0.927     0.066     2.130     2.282
   225   1 H        0.927     0.083     1.950     2.183
   226   1 H        0.927     0.085     1.930     2.172
   227   1 H        0.927     0.093     1.849     2.127
   228   1 H        0.927     0.098     1.805     2.101
   229   1 H        0.926     0.090     1.882     2.145
   230   1 H        0.861     0.251     0.879     1.468
   231   1 H        0.861     0.243     0.911     1.495
   232   1 H        0.861     0.253     0.871     1.462
   233   1 H        0.861     0.255     0.865     1.456
   234   1 H        0.980    -0.001     3.072     2.739
   235   1 H        0.980     0.000     3.043     2.726
   236   1 H        0.980    -0.006     3.158     2.777
   237   1 H        0.980    -0.006     3.159     2.777
   238   1 H        0.980    -0.012     3.261     2.822
   239   1 H        0.980    -0.009     3.205     2.798
   240   1 H        0.980    -0.020     3.426     2.892
   241   1 H        0.980    -0.006     3.148     2.773
   242   1 H        0.980     0.016     2.787     2.609
   243   1 H        1.613     0.126     1.555     1.946
   244   1 H        0.980     0.024     2.671     2.554
   245   1 H        0.980    -0.017     3.369     2.868
   246   1 H        0.980     0.028     2.608     2.523
   247   1 H        0.980    -0.001     3.065     2.736
   248   1 H        0.980    -0.007     3.168     2.781
   249   1 H        0.980     0.013     2.838     2.633
   250   1 H        0.980     0.003     3.001     2.707
   251   1 H        0.980    -0.001     3.060     2.733
   252   1 H        0.980     0.017     2.772     2.602
   253   1 H        0.980     0.003     3.000     2.707
   254   1 H        0.860     0.302     0.708     1.318
   255   1 H        0.860     0.295     0.728     1.336
   256   1 H        0.860     0.306     0.697     1.307
   257   1 H        0.860     0.236     0.939     1.518
   258   1 H        0.860     0.236     0.941     1.520
   259   1 H        0.858     0.214     1.037     1.595

 Mol. C6AA /au·bohr⁶  :     558829.296355
 Mol. C8AA /au·bohr⁸  :   12352867.021212
 Mol. α(0) /au        :       1133.154519


Wiberg/Mayer (AO) data.
largest (>0.10) Wiberg bond orders for each atom

 ---------------------------------------------------------------------------
     #   Z sym  total        # sym  WBO       # sym  WBO       # sym  WBO
 ---------------------------------------------------------------------------
     1   7 N    2.964 --     2 C    1.006   130 H    0.960   131 H    0.947
     2   6 C    3.973 --     1 N    1.006     5 C    0.971   132 H    0.956
                             3 C    0.949
     3   6 C    3.948 --     4 O    1.602    10 N    1.318     2 C    0.949
     4   8 O    1.945 --     3 C    1.602    10 N    0.197
     5   6 C    3.984 --     6 C    1.006   133 H    0.973     2 C    0.971
                           134 H    0.971
     6   6 C    3.968 --     5 C    1.006   136 H    0.964   135 H    0.953
                             7 C    0.949
     7   6 C    3.936 --     8 O    1.619     9 N    1.341     6 C    0.949
     8   8 O    1.900 --     7 C    1.619     9 N    0.193
     9   7 N    3.411 --     7 C    1.341   137 H    0.927   138 H    0.919
                             8 O    0.193
    10   7 N    3.478 --     3 C    1.318    11 C    0.967   139 H    0.917
                             4 O    0.197
    11   6 C    3.958 --    14 C    0.971    10 N    0.967   140 H    0.948
                            12 C    0.940
    12   6 C    3.949 --    13 O    1.600    18 N    1.320    11 C    0.940
    13   8 O    1.950 --    12 C    1.600    18 N    0.191
    14   6 C    3.989 --    16 C    1.005    15 C    0.992    11 C    0.971
                           141 H    0.964
    15   6 C    3.995 --    17 C    1.020    14 C    0.992   143 H    0.976
                           142 H    0.972
    16   6 C    3.992 --    14 C    1.005   145 H    0.981   144 H    0.978
                           146 H    0.977
    17   6 C    3.993 --    15 C    1.020   147 H    0.987   148 H    0.984
                           149 H    0.983
    18   7 N    3.478 --    12 C    1.320    19 C    0.973   150 H    0.920
                            13 O    0.191
    19   6 C    3.959 --    22 C    0.982    18 N    0.973   151 H    0.953
                            20 C    0.927
    20   6 C    3.950 --    21 O    1.627    26 N    1.316    19 C    0.927
    21   8 O    1.958 --    20 C    1.627    26 N    0.196
    22   6 C    3.983 --    23 C    1.004    19 C    0.982   153 H    0.972
                           152 H    0.967
    23   6 C    3.957 --    22 C    1.004    24 S    0.994   154 H    0.962
                           155 H    0.958
    24  16 S    2.079 --    25 C    1.024    23 C    0.994
    25   6 C    3.939 --    24 S    1.024   156 H    0.970   158 H    0.963
                           157 H    0.962
    26   7 N    3.477 --    20 C    1.316    27 C    0.964   159 H    0.924
                            21 O    0.196
    27   6 C    3.955 --    30 C    0.971    26 N    0.964   160 H    0.940
                            28 C    0.937
    28   6 C    3.957 --    29 O    1.610    34 N    1.327    27 C    0.937
    29   8 O    1.941 --    28 C    1.610    34 N    0.201
    30   6 C    3.983 --    27 C    0.971   162 H    0.963    31 C    0.962
                           161 H    0.962
    31   6 C    3.948 --    32 O    1.671    33 N    1.291    30 C    0.962
    32   8 O    1.972 --    31 C    1.671    33 N    0.203
    33   7 N    3.389 --    31 C    1.291   163 H    0.936   164 H    0.924
                            32 O    0.203
    34   7 N    3.483 --    28 C    1.327    35 C    0.978   165 H    0.888
                            29 O    0.201
    35   6 C    3.952 --    34 N    0.978    38 C    0.978   166 H    0.944
                            36 C    0.932
    36   6 C    3.949 --    37 O    1.639    44 N    1.302    35 C    0.932
    37   8 O    1.955 --    36 C    1.639    44 N    0.199
    38   6 C    3.983 --    39 C    1.018    35 C    0.978   167 H    0.950
                           168 H    0.944
    39   6 C    3.902 --    41 C    1.568    40 N    1.181    38 C    1.018
    40   7 N    3.074 --    42 C    1.695    39 C    1.181
    41   6 C    3.895 --    39 C    1.568    43 N    1.163   169 H    0.967
                            42 C    0.123
    42   6 C    3.255 --    40 N    1.695    43 N    1.325    41 C    0.123
    43   7 N    3.554 --    42 C    1.325    41 C    1.163   259 H    0.876
    44   7 N    3.462 --    36 C    1.302    45 C    0.975   170 H    0.892
                            37 O    0.199
    45   6 C    3.957 --    44 N    0.975    48 C    0.972    46 C    0.945
                           171 H    0.944
    46   6 C    3.952 --    47 O    1.601    50 N    1.325    45 C    0.945
    47   8 O    1.927 --    46 C    1.601    50 N    0.189
    48   6 C    3.957 --    49 S    0.999    45 C    0.972   173 H    0.959
                           172 H    0.956
    49  16 S    1.993 --    48 C    0.999   174 H    0.862
    50   7 N    3.509 --    46 C    1.325    51 C    0.990   175 H    0.898
                            47 O    0.189
    51   6 C    3.939 --    50 N    0.990    54 C    0.963   176 H    0.925
                            52 C    0.918
    52   6 C    3.945 --    53 O    1.630    64 N    1.319    51 C    0.918
    53   8 O    1.963 --    52 C    1.630    64 N    0.187
    54   6 C    3.959 --    55 C    1.071    51 C    0.963   178 H    0.950
                           177 H    0.876
    55   6 C    3.770 --    56 C    1.311    57 C    1.147    54 C    1.071
    56   6 C    3.942 --    58 N    1.479    55 C    1.311   179 H    0.964
    57   6 C    3.960 --    60 C    1.373    59 C    1.241    55 C    1.147
    58   7 N    2.828 --    56 C    1.479    59 C    1.173
    59   6 C    3.955 --    61 C    1.373    57 C    1.241    58 N    1.173
    60   6 C    3.893 --    62 C    1.386    57 C    1.373   180 H    0.958
    61   6 C    3.889 --    63 C    1.377    59 C    1.373   181 H    0.960
    62   6 C    3.946 --    63 C    1.433    60 C    1.386   182 H    0.968
    63   6 C    3.924 --    62 C    1.433    61 C    1.377   183 H    0.967
    64   7 N    3.474 --    52 C    1.319    65 C    0.977   184 H    0.910
                            53 O    0.187
    65   6 C    3.958 --    66 C    0.986    64 N    0.977    68 C    0.973
                           185 H    0.912
    66   6 C    3.889 --    67 O    1.867    65 C    0.986   186 H    0.949
    67   8 O    2.054 --    66 C    1.867
    68   6 C    3.981 --    69 C    0.999    65 C    0.973   188 H    0.970
                           187 H    0.967
    69   6 C    3.988 --    70 C    1.004    68 C    0.999   190 H    0.975
                           189 H    0.974
    70   6 C    3.985 --    71 C    1.006    69 C    1.004   191 H    0.977
                           192 H    0.968
    71   6 C    3.898 --    70 C    1.006   194 H    0.970   193 H    0.965
                            72 N    0.937
    72   7 N    3.647 --    71 C    0.937   254 H    0.898   255 H    0.897
                           256 H    0.895
    73   7 N    3.059 --    74 C    1.036   196 H    0.943   195 H    0.937
    74   6 C    3.935 --    73 N    1.036    77 C    0.954   197 H    0.945
                            75 C    0.910
    75   6 C    3.935 --    76 O    1.633    81 N    1.322    74 C    0.910
    76   8 O    1.960 --    75 C    1.633    81 N    0.194
    77   6 C    3.807 --   199 H    0.964    74 C    0.954   198 H    0.953
                            78 C    0.827
    78   6 C    3.903 --    79 O    1.537    80 O    1.515    77 C    0.827
    79   8 O    1.878 --    78 C    1.537    80 O    0.249
    80   8 O    1.841 --    78 C    1.515    79 O    0.249
    81   7 N    3.473 --    75 C    1.322    82 C    0.965   200 H    0.914
                            76 O    0.194
    82   6 C    3.945 --    85 C    0.989    81 N    0.965   201 H    0.945
                            83 C    0.923
    83   6 C    3.943 --    84 O    1.661    92 N    1.263    82 C    0.923
    84   8 O    1.971 --    83 C    1.661    92 N    0.187
    85   6 C    3.986 --    86 C    1.005    82 C    0.989   203 H    0.968
                           202 H    0.966
    86   6 C    3.989 --    85 C    1.005    87 C    1.000   205 H    0.971
                           204 H    0.967
    87   6 C    3.954 --    86 C    1.000    88 N    0.987   206 H    0.956
                           207 H    0.954
    88   7 N    3.471 --    89 C    1.321    87 C    0.987   257 H    0.896
                            91 N    0.102    90 N    0.101
    89   6 C    3.977 --    88 N    1.321    90 N    1.314    91 N    1.311
    90   7 N    3.389 --    89 C    1.314   209 H    0.920   208 H    0.907
                            88 N    0.101
    91   7 N    3.385 --    89 C    1.311   211 H    0.920   210 H    0.910
                            88 N    0.102
    92   7 N    3.494 --    83 C    1.263    93 C    0.985    98 C    0.969
                            84 O    0.187
    93   6 C    3.967 --    92 N    0.985    96 C    0.962    94 C    0.962
                           212 H    0.941
    94   6 C    3.891 --    95 O    1.914    93 C    0.962   213 H    0.947
    95   8 O    2.057 --    94 C    1.914
    96   6 C    3.988 --    97 C    1.011   215 H    0.970   214 H    0.969
                            93 C    0.962
    97   6 C    3.991 --    96 C    1.011    98 C    1.004   216 H    0.971
                           217 H    0.970
    98   6 C    3.952 --    97 C    1.004    92 N    0.969   218 H    0.965
                           219 H    0.949
    99   7 N    2.991 --   100 C    1.030   221 H    0.933   220 H    0.932
   100   6 C    3.926 --    99 N    1.030   101 C    0.964   222 H    0.945
                           103 C    0.930
   101   6 C    3.737 --   102 O    1.893   100 C    0.964   223 H    0.710
   102   8 O    2.021 --   101 C    1.893
   103   6 C    3.963 --   104 C    1.005   224 H    0.969   225 H    0.965
                           100 C    0.930
   104   6 C    3.981 --   105 C    1.009   103 C    1.005   226 H    0.969
                           227 H    0.960
   105   6 C    3.952 --   104 C    1.009   106 N    0.976   228 H    0.958
                           229 H    0.955
   106   7 N    3.487 --   107 C    1.339   105 C    0.976   258 H    0.911
                           109 N    0.109   108 N    0.100
   107   6 C    3.977 --   106 N    1.339   109 N    1.311   108 N    1.291
   108   7 N    3.373 --   107 C    1.291   230 H    0.912   231 H    0.881
                           106 N    0.100
   109   7 N    3.388 --   107 C    1.311   232 H    0.918   233 H    0.917
                           106 N    0.109
   110   1 H    1.000 --   234 H    0.994
   111   1 H    1.000 --   235 H    0.991
   112   1 H    0.999 --   236 H    0.981
   113   1 H    0.998 --   237 H    0.902
   114   1 H    1.000 --   238 H    0.965
   115   1 H    1.000 --   239 H    0.953
   116   1 H    0.998 --   240 H    0.897
   117   1 H    1.000 --   241 H    0.962
   118   1 H    1.000 --   242 H    0.919
   119   1 H    0.932 --   243 H    0.780
   120   1 H    0.999 --   244 H    0.988
   121   1 H    0.999 --   245 H    0.922
   122   1 H    0.998 --   246 H    0.917
   123   1 H    1.000 --   247 H    0.977
   124   1 H    0.999 --   248 H    0.907
   125   1 H    1.000 --   249 H    0.929
   126   1 H    1.000 --   250 H    0.946
   127   1 H    1.000 --   251 H    0.957
   128   1 H    1.000 --   252 H    0.941
   129   1 H    1.000 --   253 H    0.971
   130   1 H    0.974 --     1 N    0.960
   131   1 H    0.965 --     1 N    0.947
   132   1 H    0.985 --     2 C    0.956
   133   1 H    0.995 --     5 C    0.973
   134   1 H    0.993 --     5 C    0.971
   135   1 H    0.992 --     6 C    0.953
   136   1 H    0.993 --     6 C    0.964
   137   1 H    0.944 --     9 N    0.927
   138   1 H    0.938 --     9 N    0.919
   139   1 H    0.950 --    10 N    0.917
   140   1 H    0.990 --    11 C    0.948
   141   1 H    0.997 --    14 C    0.964
   142   1 H    0.998 --    15 C    0.972
   143   1 H    0.997 --    15 C    0.976
   144   1 H    0.997 --    16 C    0.978
   145   1 H    0.998 --    16 C    0.981
   146   1 H    0.996 --    16 C    0.977
   147   1 H    0.998 --    17 C    0.987
   148   1 H    0.997 --    17 C    0.984
   149   1 H    0.998 --    17 C    0.983
   150   1 H    0.952 --    18 N    0.920
   151   1 H    0.990 --    19 C    0.953
   152   1 H    0.992 --    22 C    0.967
   153   1 H    0.993 --    22 C    0.972
   154   1 H    0.981 --    23 C    0.962
   155   1 H    0.973 --    23 C    0.958
   156   1 H    0.990 --    25 C    0.970
   157   1 H    0.973 --    25 C    0.962
   158   1 H    0.972 --    25 C    0.963
   159   1 H    0.958 --    26 N    0.924
   160   1 H    0.991 --    27 C    0.940
   161   1 H    0.989 --    30 C    0.962
   162   1 H    0.993 --    30 C    0.963
   163   1 H    0.956 --    33 N    0.936
   164   1 H    0.944 --    33 N    0.924
   165   1 H    0.945 --    34 N    0.888
   166   1 H    0.986 --    35 C    0.944
   167   1 H    0.989 --    38 C    0.950
   168   1 H    0.985 --    38 C    0.944
   169   1 H    0.993 --    41 C    0.967
   170   1 H    0.942 --    44 N    0.892
   171   1 H    0.990 --    45 C    0.944
   172   1 H    0.982 --    48 C    0.956
   173   1 H    0.990 --    48 C    0.959
   174   1 H    0.962 --    49 S    0.862
   175   1 H    0.946 --    50 N    0.898
   176   1 H    0.982 --    51 C    0.925
   177   1 H    0.946 --    54 C    0.876
   178   1 H    0.982 --    54 C    0.950
   179   1 H    0.990 --    56 C    0.964
   180   1 H    0.990 --    60 C    0.958
   181   1 H    0.987 --    61 C    0.960
   182   1 H    0.992 --    62 C    0.968
   183   1 H    0.991 --    63 C    0.967
   184   1 H    0.947 --    64 N    0.910
   185   1 H    0.983 --    65 C    0.912
   186   1 H    0.991 --    66 C    0.949
   187   1 H    0.993 --    68 C    0.967
   188   1 H    0.993 --    68 C    0.970
   189   1 H    0.993 --    69 C    0.974
   190   1 H    0.994 --    69 C    0.975
   191   1 H    0.994 --    70 C    0.977
   192   1 H    0.994 --    70 C    0.968
   193   1 H    0.984 --    71 C    0.965
   194   1 H    0.985 --    71 C    0.970
   195   1 H    0.953 --    73 N    0.937
   196   1 H    0.963 --    73 N    0.943
   197   1 H    0.988 --    74 C    0.945
   198   1 H    0.989 --    77 C    0.953
   199   1 H    0.990 --    77 C    0.964
   200   1 H    0.950 --    81 N    0.914
   201   1 H    0.986 --    82 C    0.945
   202   1 H    0.993 --    85 C    0.966
   203   1 H    0.994 --    85 C    0.968
   204   1 H    0.995 --    86 C    0.967
   205   1 H    0.994 --    86 C    0.971
   206   1 H    0.991 --    87 C    0.956
   207   1 H    0.994 --    87 C    0.954
   208   1 H    0.940 --    90 N    0.907
   209   1 H    0.938 --    90 N    0.920
   210   1 H    0.936 --    91 N    0.910
   211   1 H    0.938 --    91 N    0.920
   212   1 H    0.988 --    93 C    0.941
   213   1 H    0.991 --    94 C    0.947
   214   1 H    0.994 --    96 C    0.969
   215   1 H    0.996 --    96 C    0.970
   216   1 H    0.994 --    97 C    0.971
   217   1 H    0.996 --    97 C    0.970
   218   1 H    0.993 --    98 C    0.965
   219   1 H    0.990 --    98 C    0.949
   220   1 H    0.947 --    99 N    0.932
   221   1 H    0.962 --    99 N    0.933
   222   1 H    0.985 --   100 C    0.945
   223   1 H    0.919 --   101 C    0.710   243 H    0.154
   224   1 H    0.995 --   103 C    0.969
   225   1 H    0.990 --   103 C    0.965
   226   1 H    0.991 --   104 C    0.969
   227   1 H    0.989 --   104 C    0.960
   228   1 H    0.990 --   105 C    0.958
   229   1 H    0.992 --   105 C    0.955
   230   1 H    0.937 --   108 N    0.912
   231   1 H    0.941 --   108 N    0.881
   232   1 H    0.936 --   109 N    0.918
   233   1 H    0.935 --   109 N    0.917
   234   1 H    1.000 --   110 H    0.994
   235   1 H    1.000 --   111 H    0.991
   236   1 H    1.000 --   112 H    0.981
   237   1 H    1.000 --   113 H    0.902
   238   1 H    1.000 --   114 H    0.965
   239   1 H    1.000 --   115 H    0.953
   240   1 H    1.000 --   116 H    0.897
   241   1 H    1.000 --   117 H    0.962
   242   1 H    1.000 --   118 H    0.919
   243   1 H    0.962 --   119 H    0.780   223 H    0.154
   244   1 H    0.999 --   120 H    0.988
   245   1 H    0.998 --   121 H    0.922
   246   1 H    0.997 --   122 H    0.917
   247   1 H    1.000 --   123 H    0.977
   248   1 H    1.000 --   124 H    0.907
   249   1 H    1.000 --   125 H    0.929
   250   1 H    1.000 --   126 H    0.946
   251   1 H    1.000 --   127 H    0.957
   252   1 H    1.000 --   128 H    0.941
   253   1 H    1.000 --   129 H    0.971
   254   1 H    0.909 --    72 N    0.898
   255   1 H    0.913 --    72 N    0.897
   256   1 H    0.906 --    72 N    0.895
   257   1 H    0.944 --    88 N    0.896
   258   1 H    0.944 --   106 N    0.911
   259   1 H    0.954 --    43 N    0.876
 ---------------------------------------------------------------------------

Topologies differ in total number of bonds
Writing topology from bond orders to xtbtopo.mol

molecular dipole:
                 x           y           z       tot (Debye)
 q only:      -22.967     -54.718     152.803
   full:      -21.718     -55.417     152.437     415.945
molecular quadrupole (traceless):
                xx          xy          yy          xz          yz          zz
 q only:    -2457.341     362.184   -1912.407   -1176.064   -2598.623    4369.748
  q+dip:    -2417.628     352.378   -1893.477   -1133.899   -2621.360    4311.105
   full:    -2426.163     352.583   -1891.435   -1132.825   -2622.355    4317.598


           -------------------------------------------------
          | TOTAL ENERGY             -357.873793713673 Eh   |
          | GRADIENT NORM               1.325682888866 Eh/α |
          | HOMO-LUMO GAP               0.027498445358 eV   |
           -------------------------------------------------
########################################################################
[WARNING] Runtime exception occurred
-2- restart_readRestart: Dimension missmatch in restart file.
-1- restart_readRestart: Number of electron missmatch in restart file.
########################################################################

------------------------------------------------------------------------
 * finished run on 2025/05/05 at 16:39:25.128     
------------------------------------------------------------------------
 total:
 * wall-time:     0 d,  0 h,  0 min,  2.032 sec
 *  cpu-time:     0 d,  0 h,  1 min,  1.481 sec
 * ratio c/w:    30.257 speedup
 SCF:
 * wall-time:     0 d,  0 h,  0 min,  2.006 sec
 *  cpu-time:     0 d,  0 h,  1 min,  0.774 sec
 * ratio c/w:    30.303 speedup

