      -----------------------------------------------------------      
     |                   =====================                   |     
     |                           x T B                           |     
     |                   =====================                   |     
     |                         S. Grimme                         |     
     |          Mulliken Center for Theoretical Chemistry        |     
     |                    University of Bonn                     |     
      -----------------------------------------------------------      

   * xtb version 6.7.1 (edcfbbe) compiled by 'conda@afd1a870197c' on 2025-04-11

   xtb is free software: you can redistribute it and/or modify it under
   the terms of the GNU Lesser General Public License as published by
   the Free Software Foundation, either version 3 of the License, or
   (at your option) any later version.
   
   xtb is distributed in the hope that it will be useful,
   but WITHOUT ANY WARRANTY; without even the implied warranty of
   MERCHANTABILITY or FITNESS FOR A PARTICULAR PURPOSE.  See the
   GNU Lesser General Public License for more details.
   
   Cite this work as:
   * C. Bannwarth, E. Caldeweyher, S. Ehlert, A. Hansen, P. Pracht,
     J. Seibert, S. Spicher, S. Grimme, WIREs Comput. Mol. Sci., 2020, 11,
     e01493. DOI: 10.1002/wcms.1493
   
   for GFN2-xTB:
   * C. Bannwarth, S. Ehlert and S. Grimme., J. Chem. Theory Comput., 2019,
     15, 1652-1671. DOI: 10.1021/acs.jctc.8b01176
   for GFN1-xTB:
   * S. Grimme, C. Bannwarth, P. Shushkov, J. Chem. Theory Comput., 2017,
     13, 1989-2009. DOI: 10.1021/acs.jctc.7b00118
   for GFN0-xTB:
   * P. Pracht, E. Caldeweyher, S. Ehlert, S. Grimme, ChemRxiv, 2019, preprint.
     DOI: 10.26434/chemrxiv.8326202.v1
   for GFN-FF:
   * S. Spicher and S. Grimme, Angew. Chem. Int. Ed., 2020, 59, 15665-15673.
     DOI: 10.1002/anie.202004239
   
   for ALPB and GBSA implicit solvation:
   * S. Ehlert, M. Stahn, S. Spicher, S. Grimme, J. Chem. Theory Comput.,
     2021, 17, 4250-4261. DOI: 10.1021/acs.jctc.1c00471
   
   for ddCOSMO and CPCM-X implicit solvation:
   * M. Stahn, S. Ehlert, S. Grimme, J. Phys. Chem. A,
     2023, XX, XXXX-XXXX. DOI: 10.1021/acs.jpca.3c04382
   
   for DFT-D4:
   * E. Caldeweyher, C. Bannwarth and S. Grimme, J. Chem. Phys., 2017,
     147, 034112. DOI: 10.1063/1.4993215
   * E. Caldeweyher, S. Ehlert, A. Hansen, H. Neugebauer, S. Spicher,
     C. Bannwarth and S. Grimme, J. Chem. Phys., 2019, 150, 154122.
     DOI: 10.1063/1.5090222
   * E. Caldeweyher, J.-M. Mewes, S. Ehlert and S. Grimme, Phys. Chem. Chem. Phys.
     2020, 22, 8499-8512. DOI: 10.1039/D0CP00502A
   
   for sTDA-xTB:
   * S. Grimme and C. Bannwarth, J. Chem. Phys., 2016, 145, 054103.
     DOI: 10.1063/1.4959605
   
   in the mass-spec context:
   * V. Asgeirsson, C. Bauer and S. Grimme, Chem. Sci., 2017, 8, 4879.
     DOI: 10.1039/c7sc00601b
   * J. Koopman and S. Grimme, ACS Omega 2019, 4, 12, 15120-15133.
     DOI: 10.1021/acsomega.9b02011
   
   for metadynamics refer to:
   * S. Grimme, J. Chem. Theory Comput., 2019, 155, 2847-2862
     DOI: 10.1021/acs.jctc.9b00143
   
   for SPH calculations refer to:
   * S. Spicher and S. Grimme, J. Chem. Theory Comput., 2021, 17, 1701-1714
     DOI: 10.1021/acs.jctc.0c01306
   
   for ONIOM refer to:
   * C. Plett, A. Katbashev, S. Ehlert, S. Grimme, M. Bursch,
     Phys. Chem. Chem. Phys., 2023, 25, 17860-17868. DOI: 10.1039/D3CP02178E
   
   for DIPRO refer to:
   * J. Kohn, N. Gildemeister, S. Grimme, D. Fazzi, A. Hansen,
     J. Chem. Phys., 2023, just accepted.
   
   for PTB refer to:
   * S. Grimme, M. Mueller, A. Hansen, J. Chem. Phys., 2023, 158, 124111.
     DOI: 10.1063/5.0137838
   
   with help from (in alphabetical order)
   P. Atkinson, C. Bannwarth, F. Bohle, G. Brandenburg, E. Caldeweyher
   M. Checinski, S. Dohm, S. Ehlert, S. Ehrlich, I. Gerasimov, C. Hölzer
   A. Katbashev, J. Kohn, J. Koopman, C. Lavigne, S. Lehtola, F. März, M. Müller,
   F. Musil, H. Neugebauer, J. Pisarek, C. Plett, P. Pracht, F. Pultar,
   J. Seibert, P. Shushkov, S. Spicher, M. Stahn, M. Steiner, T. Strunk,
   J. Stückrath, T. Rose, and J. Unsleber
   
 * started run on 2025/05/05 at 16:39:20.727     
   ID    Z sym.   atoms
    1    7 N      1, 9, 10, 18, 26, 33, 34, 40, 43, 44, 50, 58, 64, 72, 73,
                  81, 88, 90-92, 99, 106, 108, 109
    2    6 C      2, 3, 5-7, 11, 12, 14-17, 19, 20, 22, 23, 25, 27, 28, 30,
                  31, 35, 36, 38, 39, 41, 42, 45, 46, 48, 51, 52, 54-57,
                  59-63, 65, 66, 68-71, 74, 75, 77, 78, 82, 83, 85-87, 89,
                  93, 94, 96-98, 100, 101, 103-105, 107
    3    8 O      4, 8, 13, 21, 29, 32, 37, 47, 53, 67, 76, 79, 80, 84, 95,
                  102
    4   16 S      24, 49
    5    1 H      110-259

           -------------------------------------------------
          |                Calculation Setup                |
           -------------------------------------------------

          program call               : xtb /tmp/tmpclml1r6h/HID/input.xyz --alpb ether --chrg 5 --input /tmp/tmpclml1r6h/HID/constraints.inp --gfn 2
          hostname                   : fedora
          coordinate file            : /tmp/tmpclml1r6h/HID/input.xyz
          omp threads                :                    32


molecular fragmentation (1/2 indicates fragments):
111111111111111111111111111111111111111111111111111111111111111111111111
222222222222222222222222222222222222222222222222222222222111111111111111
111111111111111111111111111111111111111111111111112222222222222222222222
2222222222222222222222222222222222222111221
# atoms in fragment 1/2:   141   118
 fragment masses (1/2) :     1042.26      569.93
CMA distance (Bohr)    :  15.150
constraining FC (au)   :  0.0500

           -------------------------------------------------
          |                 G F N 2 - x T B                 |
           -------------------------------------------------

        Reference                      10.1021/acs.jctc.8b01176
      * Hamiltonian:
        H0-scaling (s, p, d)           1.850000    2.230000    2.230000
        zeta-weighting                 0.500000
      * Dispersion:
        s8                             2.700000
        a1                             0.520000
        a2                             5.000000
        s9                             5.000000
      * Repulsion:
        kExp                           1.500000    1.000000
        rExp                           1.000000
      * Coulomb:
        alpha                          2.000000
        third order                    shell-resolved
        anisotropic                    true
        a3                             3.000000
        a5                             4.000000
        cn-shift                       1.200000
        cn-exp                         4.000000
        max-rad                        5.000000

      * Solvation model:               ALPB
        Solvent                        ether
        Parameter file                 internal GFN2-xTB/ALPB
        Dielectric constant                4.3300E+00
        Reference state                gsolv [1 M gas/solution]
        Free energy shift                  4.9534E-03 Eh       3.1083E+00 kcal/mol
        Temperature                        2.9815E+02 K
        Density                            7.1300E-01 kg/L
        Solvent mass                       7.4120E+01 g/mol
        Interaction kernel             P16
        Born radius scaling (c1)           1.5847E+00
        Born radii integrator          GBOBC
        Born offset                        0.0000E+00 a0       0.0000E+00 AA
        H-bond correction              true
        Ion screening                  false
        Surface tension                    1.0000E-05 Eh       1.5569E+01 dyn/cm
        Grid points                               230 per atom

          ...................................................
          :                      SETUP                      :
          :.................................................:
          :  # basis functions                 598          :
          :  # atomic orbitals                 596          :
          :  # shells                          370          :
          :  # electrons                       641          :
          :  max. iterations                   250          :
          :  Hamiltonian                  GFN2-xTB          :
          :  restarted?                      false          :
          :  GBSA solvation                   true          :
          :  PC potential                    false          :
          :  electronic temp.          300.0000000     K    :
          :  accuracy                    1.0000000          :
          :  -> integral cutoff          0.2500000E+02      :
          :  -> integral neglect         0.1000000E-07      :
          :  -> SCF convergence          0.1000000E-05 Eh   :
          :  -> wf. convergence          0.1000000E-03 e    :
          :  Broyden damping             0.4000000          :
          :  net charge                          5          :
          :  unpaired electrons                  0          :
          ...................................................

 iter      E             dE          RMSdq      gap      omega  full diag
   1   -361.6880153 -0.361688E+03  0.449E+00    0.01       0.0  T
   2   -361.2072150  0.480800E+00  0.353E+00    0.36       1.0  T
   3   -362.8973084 -0.169009E+01  0.256E+00    0.07       1.0  T
   4   -362.2037471  0.693561E+00  0.216E+00    0.04       1.0  T
   5   -362.8558693 -0.652122E+00  0.182E+00    0.07       1.0  T
   6   -362.6218206  0.234049E+00  0.203E+00    0.40       1.0  T
   7   -363.3749223 -0.753102E+00  0.290E+00    0.13       1.0  T
   8   -363.3372133  0.377090E-01  0.199E+00    0.11       1.0  T
   9   -363.6388133 -0.301600E+00  0.243E+00    0.08       1.0  T
  10   -363.8811476 -0.242334E+00  0.149E+00    0.06       1.0  T
  11   -363.5326643  0.348483E+00  0.204E+00    0.01       1.0  T
  12   -363.9547081 -0.422044E+00  0.190E+00    0.04       1.0  T
  13   -363.7558052  0.198903E+00  0.124E+00    0.01       1.0  T
  14   -364.0060476 -0.250242E+00  0.960E-01    0.07       1.0  T
  15   -363.9971953  0.885229E-02  0.182E+00    0.03       1.0  T
  16   -363.8204366  0.176759E+00  0.108E+00    0.10       1.0  T
  17   -364.0235348 -0.203098E+00  0.916E-01    0.11       1.0  T
  18   -363.9727532  0.507816E-01  0.967E-01    0.03       1.0  T
  19   -364.1346066 -0.161853E+00  0.696E-01    0.08       1.0  T
  20   -363.9768130  0.157794E+00  0.102E+00    0.05       1.0  T
  21   -364.1058747 -0.129062E+00  0.617E-01    0.13       1.0  T
  22   -364.1175246 -0.116499E-01  0.564E-01    0.12       1.0  T
  23   -364.1125870  0.493756E-02  0.608E-01    0.11       1.0  T
  24   -364.1135832 -0.996133E-03  0.656E-01    0.07       1.0  T
  25   -364.1204414 -0.685827E-02  0.628E-01    0.08       1.0  T
  26   -364.1066185  0.138230E-01  0.636E-01    0.01       1.0  T
  27   -364.1330350 -0.264165E-01  0.551E-01    0.09       1.0  T
  28   -364.1636256 -0.305906E-01  0.445E-01    0.04       1.0  T
  29   -364.1937319 -0.301063E-01  0.348E-01    0.05       1.0  T
  30   -364.2056221 -0.118902E-01  0.230E-01    0.02       1.0  T
  31   -364.2130315 -0.740934E-02  0.383E-01    0.03       1.0  T
  32   -364.2015668  0.114647E-01  0.314E-01    0.05       1.0  T
  33   -364.1975466  0.402018E-02  0.345E-01    0.05       1.0  T
  34   -364.2036967 -0.615004E-02  0.313E-01    0.04       1.0  T
  35   -364.2061249 -0.242823E-02  0.326E-01    0.04       1.0  T
  36   -364.2115286 -0.540368E-02  0.302E-01    0.03       1.0  T
  37   -364.2065722  0.495640E-02  0.297E-01    0.04       1.0  T
  38   -364.2140281 -0.745591E-02  0.198E-01    0.03       1.0  T
  39   -364.2154617 -0.143366E-02  0.188E-01    0.03       1.0  T
  40   -364.2169110 -0.144930E-02  0.174E-01    0.03       1.0  T
  41   -364.2180687 -0.115761E-02  0.165E-01    0.03       1.0  T
  42   -364.2280488 -0.998014E-02  0.649E-02    0.03       1.0  T
  43   -364.2260512  0.199764E-02  0.120E-01    0.03       1.0  T
  44   -364.2249249  0.112629E-02  0.115E-01    0.04       1.0  T
  45   -364.2268685 -0.194358E-02  0.873E-02    0.03       1.0  T
  46   -364.2280338 -0.116531E-02  0.714E-02    0.03       1.0  T
  47   -364.2290263 -0.992578E-03  0.397E-02    0.03       1.0  T
  48   -364.2293328 -0.306499E-03  0.236E-02    0.03       1.0  T
  49   -364.2293963 -0.634293E-04  0.222E-02    0.03       1.0  T
  50   -364.2294603 -0.640731E-04  0.139E-02    0.03       1.0  T
  51   -364.2295335 -0.731787E-04  0.515E-03    0.03       1.2  T
  52   -364.2295355 -0.193546E-05  0.378E-03    0.03       1.6  T
  53   -364.2295411 -0.559080E-05  0.134E-03    0.03       4.6  T
  54   -364.2295415 -0.450396E-06  0.645E-04    0.03       9.6  T
  55   -364.2295416 -0.104199E-06  0.310E-04    0.03      20.0  T

   *** convergence criteria satisfied after 55 iterations ***

         #    Occupation            Energy/Eh            Energy/eV
      -------------------------------------------------------------
         1        2.0000           -0.8224579             -22.3802
       ...           ...                  ...                  ...
       315        1.9608           -0.4672630             -12.7149
       316        1.8826           -0.4661763             -12.6853
       317        1.8596           -0.4659922             -12.6803
       318        1.8351           -0.4658251             -12.6757
       319        1.5917           -0.4648091             -12.6481
       320        1.5160           -0.4645952             -12.6423
       321        1.2285           -0.4639284             -12.6241 (HOMO)
       322        0.7160           -0.4628881             -12.5958 (LUMO)
       323        0.4504           -0.4622471             -12.5784
       324                         -0.3834840             -10.4351
       325                         -0.3700479             -10.0695
       326                         -0.3623261              -9.8594
       ...                                ...                  ...
       596                          1.3824874              37.6194
      -------------------------------------------------------------
                  HL-Gap            0.0010403 Eh            0.0283 eV
             Fermi-level           -0.4634671 Eh          -12.6116 eV

 SCC (total)                   0 d,  0 h,  0 min,  2.320 sec
 SCC setup                      ...        0 min,  0.004 sec (  0.185%)
 Dispersion                     ...        0 min,  0.013 sec (  0.540%)
 classical contributions        ...        0 min,  0.001 sec (  0.023%)
 integral evaluation            ...        0 min,  0.019 sec (  0.806%)
 iterations                     ...        0 min,  2.192 sec ( 94.503%)
 molecular gradient             ...        0 min,  0.084 sec (  3.614%)
 printout                       ...        0 min,  0.008 sec (  0.328%)

         :::::::::::::::::::::::::::::::::::::::::::::::::::::
         ::                     SUMMARY                     ::
         :::::::::::::::::::::::::::::::::::::::::::::::::::::
         :: total energy            -357.894434321729 Eh    ::
         :: total w/o Gsasa/hb      -357.778343606192 Eh    ::
         :: gradient norm              1.326619986699 Eh/a0 ::
         :: HOMO-LUMO gap              0.028308109195 eV    ::
         ::.................................................::
         :: SCC energy              -364.202177083095 Eh    ::
         :: -> isotropic ES            1.614808273864 Eh    ::
         :: -> anisotropic ES          0.024954565635 Eh    ::
         :: -> anisotropic XC          0.241891473608 Eh    ::
         :: -> dispersion             -0.298735643575 Eh    ::
         :: -> Gsolv                  -0.860223644172 Eh    ::
         ::    -> Gelec               -0.744132928635 Eh    ::
         ::    -> Gsasa               -0.085789385694 Eh    ::
         ::    -> Ghb                 -0.035254767420 Eh    ::
         ::    -> Gshift               0.004953437577 Eh    ::
         :: repulsion energy           6.307742761366 Eh    ::
         :: add. restraining           0.000000000000 Eh    ::
         :: total charge               5.000000000227 e     ::
         :::::::::::::::::::::::::::::::::::::::::::::::::::::

           -------------------------------------------------
          |                Property Printout                |
           -------------------------------------------------

    * Orbital Energies and Occupations

         #    Occupation            Energy/Eh            Energy/eV
      -------------------------------------------------------------
         1        2.0000           -0.8224579             -22.3802
       ...           ...                  ...                  ...
       309        2.0000           -0.4740038             -12.8983
       310        1.9999           -0.4728504             -12.8669
       311        1.9996           -0.4716399             -12.8340
       312        1.9995           -0.4713633             -12.8264
       313        1.9901           -0.4685892             -12.7510
       314        1.9703           -0.4675333             -12.7222
       315        1.9608           -0.4672630             -12.7149
       316        1.8826           -0.4661763             -12.6853
       317        1.8596           -0.4659922             -12.6803
       318        1.8351           -0.4658251             -12.6757
       319        1.5917           -0.4648091             -12.6481
       320        1.5160           -0.4645952             -12.6423
       321        1.2285           -0.4639284             -12.6241 (HOMO)
       322        0.7160           -0.4628881             -12.5958 (LUMO)
       323        0.4504           -0.4622471             -12.5784
       324                         -0.3834840             -10.4351
       325                         -0.3700479             -10.0695
       326                         -0.3623261              -9.8594
       327                         -0.3340739              -9.0906
       328                         -0.3282786              -8.9329
       329                         -0.3242932              -8.8245
       330                         -0.3212028              -8.7404
       331                         -0.3165918              -8.6149
       332                         -0.3157546              -8.5921
       ...                                ...                  ...
       596                          1.3824874              37.6194
      -------------------------------------------------------------
                  HL-Gap            0.0010403 Eh            0.0283 eV
             Fermi-level           -0.4634671 Eh          -12.6116 eV

     #   Z          covCN         q      C6AA      α(0)
     1   7 N        2.629    -0.353    29.088     8.010
     2   6 C        3.786     0.024    20.188     6.400
     3   6 C        2.755     0.259    22.642     7.792
     4   8 O        0.858    -0.495    23.666     6.522
     5   6 C        3.812    -0.072    21.871     6.657
     6   6 C        3.808    -0.102    22.432     6.742
     7   6 C        2.743     0.285    22.165     7.709
     8   8 O        0.859    -0.466    23.038     6.435
     9   7 N        2.640    -0.274    27.093     7.730
    10   7 N        2.685    -0.171    24.692     7.380
    11   6 C        3.802     0.010    20.414     6.433
    12   6 C        2.766     0.268    22.473     7.764
    13   8 O        0.859    -0.487    23.500     6.500
    14   6 C        3.861    -0.029    21.049     6.525
    15   6 C        3.812    -0.076    21.938     6.667
    16   6 C        3.763    -0.123    22.899     6.821
    17   6 C        3.759    -0.122    22.880     6.819
    18   7 N        2.688    -0.164    24.550     7.359
    19   6 C        3.803     0.016    20.297     6.414
    20   6 C        2.762     0.272    22.401     7.751
    21   8 O        0.861    -0.483    23.410     6.487
    22   6 C        3.849    -0.094    22.255     6.710
    23   6 C        3.797    -0.056    21.592     6.616
    24  16 S        1.990     0.055   138.812    19.830
    25   6 C        3.752    -0.106    22.586     6.777
    26   7 N        2.687    -0.167    24.620     7.369
    27   6 C        3.811     0.025    20.147     6.389
    28   6 C        2.758     0.275    22.349     7.742
    29   8 O        0.859    -0.491    23.589     6.512
    30   6 C        3.813    -0.110    22.592     6.765
    31   6 C        2.745     0.286    22.153     7.707
    32   8 O        0.860    -0.474    23.209     6.459
    33   7 N        2.641    -0.282    27.282     7.757
    34   7 N        2.690    -0.168    24.639     7.372
    35   6 C        3.799     0.019    20.260     6.409
    36   6 C        2.748     0.266    22.506     7.768
    37   8 O        0.859    -0.488    23.511     6.501
    38   6 C        3.812    -0.096    22.312     6.723
    39   6 C        3.074     0.032    27.218     8.554
    40   7 N        2.842    -0.067    22.527     7.049
    41   6 C        3.042    -0.005    28.110     8.696
    42   6 C        2.086     0.078    28.972     8.696
    43   7 N        1.975    -0.232    26.893     7.691
    44   7 N        2.682    -0.175    24.791     7.395
    45   6 C        3.806     0.020    20.228     6.403
    46   6 C        2.757     0.258    22.649     7.793
    47   8 O        0.856    -0.485    23.451     6.493
    48   6 C        3.800    -0.024    21.002     6.525
    49  16 S        1.909    -0.179   148.631    20.519
    50   7 N        2.687    -0.143    24.095     7.290
    51   6 C        3.795     0.020    20.252     6.408
    52   6 C        2.768     0.279    22.287     7.732
    53   8 O        0.860    -0.457    22.855     6.410
    54   6 C        3.810    -0.082    22.061     6.686
    55   6 C        3.041     0.057    26.676     8.471
    56   6 C        3.032     0.030    27.293     8.569
    57   6 C        3.114    -0.009    28.086     8.681
    58   7 N        1.914    -0.186    25.853     7.539
    59   6 C        3.076     0.079    26.155     8.385
    60   6 C        2.910    -0.007    28.200     8.708
    61   6 C        2.906    -0.014    28.360     8.732
    62   6 C        2.914    -0.034    28.839     8.806
    63   6 C        2.925    -0.025    28.619     8.773
    64   7 N        2.686    -0.138    23.995     7.275
    65   6 C        3.808     0.020    20.239     6.404
    66   6 C        2.758     0.193    23.880     8.002
    67   8 O        0.856    -0.367    21.036     6.149
    68   6 C        3.806    -0.089    22.196     6.707
    69   6 C        3.803    -0.090    22.219     6.711
    70   6 C        3.803    -0.102    22.443     6.745
    71   6 C        3.732    -0.057    21.703     6.650
    72   7 N        3.484    -0.178    24.834     7.401
    73   7 N        2.626    -0.311    28.007     7.860
    74   6 C        3.782     0.020    20.251     6.411
    75   6 C        2.747     0.273    22.376     7.745
    76   8 O        0.859    -0.452    22.751     6.395
    77   6 C        3.801    -0.079    22.008     6.679
    78   6 C        2.683     0.376    20.628     7.433
    79   8 O        0.856    -0.468    23.087     6.442
    80   8 O        0.856    -0.466    23.040     6.435
    81   7 N        2.684    -0.149    24.218     7.309
    82   6 C        3.793     0.017    20.303     6.417
    83   6 C        2.762     0.262    22.578     7.782
    84   8 O        0.859    -0.463    22.979     6.427
    85   6 C        3.821    -0.078    21.976     6.671
    86   6 C        3.822    -0.090    22.191     6.704
    87   6 C        3.752    -0.029    21.157     6.559
    88   7 N        2.711    -0.137    23.974     7.272
    89   6 C        2.738     0.233    23.115     7.872
    90   7 N        2.654    -0.261    26.767     7.684
    91   7 N        2.656    -0.268    26.935     7.708
    92   7 N        2.751    -0.065    22.508     7.046
    93   6 C        3.830     0.018    20.257     6.404
    94   6 C        2.759     0.191    23.913     8.008
    95   8 O        0.856    -0.350    20.706     6.101
    96   6 C        3.838    -0.075    21.898     6.657
    97   6 C        3.836    -0.078    21.969     6.668
    98   6 C        3.768    -0.022    21.001     6.531
    99   7 N        2.633    -0.333    28.583     7.940
   100   6 C        3.791     0.033    20.023     6.373
   101   6 C        2.772     0.105    25.664     8.297
   102   8 O        0.856    -0.299    19.768     5.961
   103   6 C        3.818    -0.085    22.104     6.691
   104   6 C        3.813    -0.100    22.398     6.736
   105   6 C        3.747    -0.036    21.284     6.580
   106   7 N        2.699    -0.139    24.011     7.278
   107   6 C        2.738     0.224    23.280     7.900
   108   7 N        2.648    -0.249    26.484     7.643
   109   7 N        2.647    -0.266    26.901     7.703
   110   1 H        0.980     0.001     3.025     2.718
   111   1 H        0.980    -0.000     3.051     2.730
   112   1 H        0.980     0.010     2.882     2.653
   113   1 H        0.980     0.032     2.544     2.492
   114   1 H        0.980     0.004     2.983     2.699
   115   1 H        0.980     0.013     2.838     2.633
   116   1 H        0.980     0.035     2.507     2.474
   117   1 H        0.980    -0.008     3.184     2.788
   118   1 H        0.980    -0.014     3.296     2.837
   119   1 H        0.980     0.024     2.667     2.552
   120   1 H        0.980    -0.023     3.483     2.916
   121   1 H        0.980     0.019     2.733     2.583
   122   1 H        0.980    -0.026     3.542     2.941
   123   1 H        0.980     0.005     2.956     2.687
   124   1 H        0.980     0.024     2.660     2.548
   125   1 H        0.980    -0.013     3.281     2.830
   126   1 H        0.980    -0.005     3.132     2.765
   127   1 H        0.980    -0.002     3.080     2.742
   128   1 H        0.980    -0.012     3.272     2.827
   129   1 H        0.980    -0.011     3.250     2.817
   130   1 H        0.860     0.158     1.349     1.819
   131   1 H        0.860     0.183     1.195     1.712
   132   1 H        0.926     0.049     2.333     2.388
   133   1 H        0.927     0.070     2.088     2.259
   134   1 H        0.927     0.077     2.007     2.215
   135   1 H        0.927     0.082     1.954     2.186
   136   1 H        0.927     0.075     2.033     2.230
   137   1 H        0.861     0.236     0.940     1.519
   138   1 H        0.861     0.246     0.900     1.486
   139   1 H        0.861     0.223     0.996     1.563
   140   1 H        0.927     0.098     1.807     2.102
   141   1 H        0.927     0.052     2.297     2.370
   142   1 H        0.927     0.047     2.358     2.401
   143   1 H        0.927     0.056     2.251     2.346
   144   1 H        0.927     0.054     2.271     2.357
   145   1 H        0.927     0.046     2.369     2.407
   146   1 H        0.927     0.062     2.178     2.308
   147   1 H        0.927     0.039     2.458     2.452
   148   1 H        0.927     0.048     2.345     2.395
   149   1 H        0.927     0.046     2.366     2.405
   150   1 H        0.861     0.218     1.016     1.579
   151   1 H        0.927     0.096     1.817     2.108
   152   1 H        0.927     0.086     1.920     2.167
   153   1 H        0.927     0.082     1.963     2.191
   154   1 H        0.927     0.093     1.852     2.128
   155   1 H        0.927     0.098     1.802     2.099
   156   1 H        0.927     0.098     1.804     2.100
   157   1 H        0.927     0.100     1.781     2.087
   158   1 H        0.927     0.099     1.792     2.093
   159   1 H        0.861     0.206     1.076     1.625
   160   1 H        0.926     0.093     1.849     2.126
   161   1 H        0.926     0.103     1.761     2.075
   162   1 H        0.927     0.081     1.964     2.191
   163   1 H        0.861     0.211     1.052     1.607
   164   1 H        0.861     0.236     0.938     1.517
   165   1 H        0.861     0.236     0.941     1.519
   166   1 H        0.927     0.098     1.802     2.099
   167   1 H        0.927     0.098     1.800     2.098
   168   1 H        0.927     0.111     1.685     2.030
   169   1 H        0.929     0.082     1.955     2.187
   170   1 H        0.861     0.243     0.911     1.495
   171   1 H        0.927     0.099     1.792     2.093
   172   1 H        0.927     0.096     1.818     2.109
   173   1 H        0.927     0.100     1.785     2.089
   174   1 H        0.921     0.195     1.125     1.658
   175   1 H        0.861     0.230     0.966     1.540
   176   1 H        0.927     0.125     1.573     1.961
   177   1 H        0.927     0.157     1.348     1.816
   178   1 H        0.927     0.110     1.695     2.036
   179   1 H        0.929     0.089     1.887     2.148
   180   1 H        0.929     0.082     1.962     2.190
   181   1 H        0.929     0.101     1.772     2.081
   182   1 H        0.929     0.086     1.915     2.164
   183   1 H        0.929     0.091     1.872     2.139
   184   1 H        0.861     0.226     0.983     1.553
   185   1 H        0.927     0.125     1.573     1.961
   186   1 H        0.929     0.093     1.850     2.127
   187   1 H        0.927     0.079     1.984     2.203
   188   1 H        0.927     0.080     1.975     2.198
   189   1 H        0.927     0.069     2.092     2.262
   190   1 H        0.927     0.078     2.002     2.213
   191   1 H        0.927     0.081     1.968     2.194
   192   1 H        0.926     0.079     1.994     2.208
   193   1 H        0.927     0.122     1.594     1.975
   194   1 H        0.927     0.123     1.587     1.970
   195   1 H        0.860     0.203     1.093     1.637
   196   1 H        0.860     0.188     1.168     1.693
   197   1 H        0.927     0.107     1.720     2.051
   198   1 H        0.927     0.103     1.756     2.072
   199   1 H        0.927     0.093     1.855     2.130
   200   1 H        0.861     0.222     1.001     1.567
   201   1 H        0.927     0.097     1.810     2.104
   202   1 H        0.927     0.073     2.057     2.243
   203   1 H        0.927     0.071     2.073     2.251
   204   1 H        0.927     0.067     2.118     2.276
   205   1 H        0.927     0.076     2.023     2.224
   206   1 H        0.927     0.096     1.819     2.109
   207   1 H        0.926     0.078     2.003     2.213
   208   1 H        0.861     0.246     0.899     1.485
   209   1 H        0.861     0.248     0.890     1.478
   210   1 H        0.861     0.253     0.871     1.462
   211   1 H        0.861     0.248     0.891     1.479
   212   1 H        0.927     0.100     1.781     2.087
   213   1 H        0.929     0.085     1.929     2.172
   214   1 H        0.927     0.082     1.963     2.191
   215   1 H        0.927     0.061     2.188     2.313
   216   1 H        0.926     0.075     2.033     2.230
   217   1 H        0.927     0.064     2.150     2.293
   218   1 H        0.927     0.071     2.079     2.255
   219   1 H        0.927     0.083     1.945     2.181
   220   1 H        0.860     0.210     1.055     1.609
   221   1 H        0.860     0.196     1.127     1.663
   222   1 H        0.927     0.109     1.708     2.043
   223   1 H        1.558     0.217     1.009     1.568
   224   1 H        0.927     0.068     2.112     2.272
   225   1 H        0.927     0.085     1.928     2.171
   226   1 H        0.927     0.085     1.927     2.171
   227   1 H        0.927     0.092     1.857     2.131
   228   1 H        0.927     0.096     1.820     2.109
   229   1 H        0.926     0.087     1.911     2.162
   230   1 H        0.861     0.245     0.903     1.489
   231   1 H        0.861     0.254     0.868     1.459
   232   1 H        0.861     0.247     0.894     1.481
   233   1 H        0.861     0.256     0.861     1.453
   234   1 H        0.980    -0.001     3.074     2.740
   235   1 H        0.980     0.000     3.044     2.726
   236   1 H        0.980    -0.006     3.161     2.778
   237   1 H        0.980    -0.006     3.159     2.777
   238   1 H        0.980    -0.012     3.262     2.822
   239   1 H        0.980    -0.009     3.209     2.799
   240   1 H        0.980    -0.020     3.427     2.893
   241   1 H        0.980    -0.006     3.149     2.773
   242   1 H        0.980     0.016     2.788     2.609
   243   1 H        1.613     0.127     1.544     1.940
   244   1 H        0.980     0.024     2.666     2.551
   245   1 H        0.980    -0.017     3.362     2.865
   246   1 H        0.980     0.028     2.604     2.522
   247   1 H        0.980    -0.001     3.067     2.737
   248   1 H        0.980    -0.007     3.168     2.781
   249   1 H        0.980     0.013     2.839     2.633
   250   1 H        0.980     0.003     3.001     2.707
   251   1 H        0.980    -0.001     3.060     2.733
   252   1 H        0.980     0.017     2.773     2.602
   253   1 H        0.980     0.003     3.003     2.708
   254   1 H        0.860     0.303     0.705     1.316
   255   1 H        0.860     0.296     0.726     1.335
   256   1 H        0.860     0.307     0.693     1.304
   257   1 H        0.860     0.236     0.941     1.520
   258   1 H        0.860     0.230     0.967     1.540
   259   1 H        0.858     0.222     1.001     1.567

 Mol. C6AA /au·bohr⁶  :     558796.220788
 Mol. C8AA /au·bohr⁸  :   12352648.403087
 Mol. α(0) /au        :       1133.107673


Wiberg/Mayer (AO) data.
largest (>0.10) Wiberg bond orders for each atom

 ---------------------------------------------------------------------------
     #   Z sym  total        # sym  WBO       # sym  WBO       # sym  WBO
 ---------------------------------------------------------------------------
     1   7 N    2.964 --     2 C    1.006   130 H    0.960   131 H    0.947
     2   6 C    3.972 --     1 N    1.006     5 C    0.971   132 H    0.955
                             3 C    0.950
     3   6 C    3.948 --     4 O    1.599    10 N    1.320     2 C    0.950
     4   8 O    1.943 --     3 C    1.599    10 N    0.197
     5   6 C    3.984 --     6 C    1.006   133 H    0.973     2 C    0.971
                           134 H    0.971
     6   6 C    3.965 --     5 C    1.006   136 H    0.963   135 H    0.953
                             7 C    0.948
     7   6 C    3.935 --     8 O    1.618     9 N    1.342     6 C    0.948
     8   8 O    1.897 --     7 C    1.618     9 N    0.192
     9   7 N    3.411 --     7 C    1.342   137 H    0.927   138 H    0.918
                             8 O    0.192
    10   7 N    3.479 --     3 C    1.320    11 C    0.966   139 H    0.917
                             4 O    0.197
    11   6 C    3.957 --    14 C    0.970    10 N    0.966   140 H    0.948
                            12 C    0.940
    12   6 C    3.948 --    13 O    1.598    18 N    1.321    11 C    0.940
    13   8 O    1.948 --    12 C    1.598    18 N    0.191
    14   6 C    3.989 --    16 C    1.005    15 C    0.992    11 C    0.970
                           141 H    0.964
    15   6 C    3.995 --    17 C    1.020    14 C    0.992   143 H    0.976
                           142 H    0.972
    16   6 C    3.992 --    14 C    1.005   145 H    0.981   144 H    0.978
                           146 H    0.977
    17   6 C    3.993 --    15 C    1.020   147 H    0.987   148 H    0.984
                           149 H    0.983
    18   7 N    3.478 --    12 C    1.321    19 C    0.973   150 H    0.920
                            13 O    0.191
    19   6 C    3.959 --    22 C    0.982    18 N    0.973   151 H    0.953
                            20 C    0.928
    20   6 C    3.950 --    21 O    1.627    26 N    1.317    19 C    0.928
    21   8 O    1.957 --    20 C    1.627    26 N    0.196
    22   6 C    3.983 --    23 C    1.004    19 C    0.982   153 H    0.972
                           152 H    0.967
    23   6 C    3.956 --    22 C    1.004    24 S    0.994   154 H    0.961
                           155 H    0.958
    24  16 S    2.079 --    25 C    1.024    23 C    0.994
    25   6 C    3.939 --    24 S    1.024   156 H    0.970   158 H    0.962
                           157 H    0.962
    26   7 N    3.477 --    20 C    1.317    27 C    0.964   159 H    0.924
                            21 O    0.196
    27   6 C    3.956 --    30 C    0.970    26 N    0.964   160 H    0.940
                            28 C    0.939
    28   6 C    3.957 --    29 O    1.613    34 N    1.323    27 C    0.939
    29   8 O    1.942 --    28 C    1.613    34 N    0.200
    30   6 C    3.984 --    27 C    0.970   162 H    0.963    31 C    0.962
                           161 H    0.962
    31   6 C    3.948 --    32 O    1.672    33 N    1.292    30 C    0.962
    32   8 O    1.974 --    31 C    1.672    33 N    0.204
    33   7 N    3.390 --    31 C    1.292   163 H    0.936   164 H    0.924
                            32 O    0.204
    34   7 N    3.481 --    28 C    1.323    35 C    0.980   165 H    0.886
                            29 O    0.200
    35   6 C    3.960 --    34 N    0.980    38 C    0.977   166 H    0.945
                            36 C    0.935
    36   6 C    3.950 --    37 O    1.611    44 N    1.323    35 C    0.935
    37   8 O    1.948 --    36 C    1.611    44 N    0.199
    38   6 C    3.982 --    39 C    1.017    35 C    0.977   167 H    0.951
                           168 H    0.943
    39   6 C    3.905 --    41 C    1.564    40 N    1.151    38 C    1.017
                            42 C    0.111
    40   7 N    3.566 --    42 C    1.324    39 C    1.151   259 H    0.897
    41   6 C    3.895 --    39 C    1.564    43 N    1.207   169 H    0.966
    42   6 C    3.233 --    43 N    1.667    40 N    1.324    39 C    0.111
    43   7 N    3.052 --    42 C    1.667    41 C    1.207
    44   7 N    3.481 --    36 C    1.323    45 C    0.974   170 H    0.890
                            37 O    0.199
    45   6 C    3.957 --    44 N    0.974    48 C    0.973    46 C    0.945
                           171 H    0.944
    46   6 C    3.953 --    47 O    1.602    50 N    1.326    45 C    0.945
    47   8 O    1.929 --    46 C    1.602    50 N    0.192
    48   6 C    3.958 --    49 S    0.999    45 C    0.973   173 H    0.959
                           172 H    0.957
    49  16 S    1.992 --    48 C    0.999   174 H    0.862
    50   7 N    3.507 --    46 C    1.326    51 C    0.989   175 H    0.899
                            47 O    0.192
    51   6 C    3.940 --    50 N    0.989    54 C    0.964   176 H    0.926
                            52 C    0.921
    52   6 C    3.946 --    53 O    1.634    64 N    1.313    51 C    0.921
    53   8 O    1.964 --    52 C    1.634    64 N    0.187
    54   6 C    3.959 --    55 C    1.068    51 C    0.964   178 H    0.951
                           177 H    0.878
    55   6 C    3.757 --    56 C    1.314    57 C    1.147    54 C    1.068
    56   6 C    3.941 --    58 N    1.476    55 C    1.314   179 H    0.964
    57   6 C    3.959 --    60 C    1.373    59 C    1.240    55 C    1.147
    58   7 N    2.821 --    56 C    1.476    59 C    1.174
    59   6 C    3.955 --    61 C    1.372    57 C    1.240    58 N    1.174
    60   6 C    3.891 --    62 C    1.386    57 C    1.373   180 H    0.958
    61   6 C    3.887 --    63 C    1.378    59 C    1.372   181 H    0.960
    62   6 C    3.946 --    63 C    1.432    60 C    1.386   182 H    0.968
    63   6 C    3.923 --    62 C    1.432    61 C    1.378   183 H    0.967
    64   7 N    3.470 --    52 C    1.313    65 C    0.977   184 H    0.911
                            53 O    0.187
    65   6 C    3.959 --    66 C    0.984    64 N    0.977    68 C    0.975
                           185 H    0.913
    66   6 C    3.888 --    67 O    1.870    65 C    0.984   186 H    0.949
    67   8 O    2.056 --    66 C    1.870
    68   6 C    3.982 --    69 C    0.999    65 C    0.975   188 H    0.970
                           187 H    0.967
    69   6 C    3.990 --    70 C    1.004    68 C    0.999   190 H    0.975
                           189 H    0.974
    70   6 C    3.985 --    71 C    1.006    69 C    1.004   191 H    0.976
                           192 H    0.968
    71   6 C    3.900 --    70 C    1.006   194 H    0.970   193 H    0.966
                            72 N    0.938
    72   7 N    3.646 --    71 C    0.938   254 H    0.897   255 H    0.897
                           256 H    0.894
    73   7 N    3.057 --    74 C    1.035   196 H    0.943   195 H    0.937
    74   6 C    3.936 --    73 N    1.035    77 C    0.954   197 H    0.944
                            75 C    0.912
    75   6 C    3.935 --    76 O    1.631    81 N    1.321    74 C    0.912
    76   8 O    1.956 --    75 C    1.631    81 N    0.194
    77   6 C    3.808 --   199 H    0.964   198 H    0.954    74 C    0.954
                            78 C    0.828
    78   6 C    3.904 --    79 O    1.537    80 O    1.514    77 C    0.828
    79   8 O    1.877 --    78 C    1.537    80 O    0.250
    80   8 O    1.839 --    78 C    1.514    79 O    0.250
    81   7 N    3.473 --    75 C    1.321    82 C    0.965   200 H    0.914
                            76 O    0.194
    82   6 C    3.949 --    85 C    0.989    81 N    0.965   201 H    0.947
                            83 C    0.923
    83   6 C    3.944 --    84 O    1.664    92 N    1.261    82 C    0.923
    84   8 O    1.974 --    83 C    1.664    92 N    0.186
    85   6 C    3.986 --    86 C    1.005    82 C    0.989   203 H    0.968
                           202 H    0.965
    86   6 C    3.990 --    85 C    1.005    87 C    1.000   205 H    0.971
                           204 H    0.967
    87   6 C    3.954 --    86 C    1.000    88 N    0.987   206 H    0.956
                           207 H    0.954
    88   7 N    3.469 --    89 C    1.320    87 C    0.987   257 H    0.896
                            91 N    0.102    90 N    0.101
    89   6 C    3.977 --    88 N    1.320    90 N    1.315    91 N    1.312
    90   7 N    3.390 --    89 C    1.315   209 H    0.920   208 H    0.907
                            88 N    0.101
    91   7 N    3.386 --    89 C    1.312   211 H    0.920   210 H    0.910
                            88 N    0.102
    92   7 N    3.496 --    83 C    1.261    93 C    0.985    98 C    0.969
                            84 O    0.186
    93   6 C    3.965 --    92 N    0.985    94 C    0.962    96 C    0.961
                           212 H    0.940
    94   6 C    3.889 --    95 O    1.912    93 C    0.962   213 H    0.947
    95   8 O    2.055 --    94 C    1.912
    96   6 C    3.986 --    97 C    1.011   215 H    0.970   214 H    0.967
                            93 C    0.961
    97   6 C    3.991 --    96 C    1.011    98 C    1.005   216 H    0.970
                           217 H    0.970
    98   6 C    3.954 --    97 C    1.005    92 N    0.969   218 H    0.965
                           219 H    0.950
    99   7 N    2.994 --   100 C    1.032   221 H    0.932   220 H    0.930
   100   6 C    3.920 --    99 N    1.032   101 C    0.962   222 H    0.944
                           103 C    0.927
   101   6 C    3.731 --   102 O    1.896   100 C    0.962   223 H    0.703
   102   8 O    2.026 --   101 C    1.896
   103   6 C    3.959 --   104 C    1.005   224 H    0.968   225 H    0.964
                           100 C    0.927
   104   6 C    3.980 --   105 C    1.009   103 C    1.005   226 H    0.969
                           227 H    0.960
   105   6 C    3.954 --   104 C    1.009   106 N    0.978   228 H    0.958
                           229 H    0.956
   106   7 N    3.471 --   107 C    1.323   105 C    0.978   258 H    0.914
                           108 N    0.103   109 N    0.103
   107   6 C    3.977 --   106 N    1.323   108 N    1.315   109 N    1.306
   108   7 N    3.397 --   107 C    1.315   230 H    0.916   231 H    0.911
                           106 N    0.103   109 N    0.100
   109   7 N    3.384 --   107 C    1.306   232 H    0.921   233 H    0.917
                           106 N    0.103   108 N    0.100
   110   1 H    1.000 --   234 H    0.994
   111   1 H    1.000 --   235 H    0.991
   112   1 H    0.999 --   236 H    0.981
   113   1 H    0.998 --   237 H    0.902
   114   1 H    1.000 --   238 H    0.965
   115   1 H    1.000 --   239 H    0.953
   116   1 H    0.998 --   240 H    0.896
   117   1 H    0.999 --   241 H    0.962
   118   1 H    1.000 --   242 H    0.919
   119   1 H    0.926 --   243 H    0.775
   120   1 H    0.999 --   244 H    0.988
   121   1 H    0.999 --   245 H    0.921
   122   1 H    0.998 --   246 H    0.917
   123   1 H    1.000 --   247 H    0.977
   124   1 H    0.999 --   248 H    0.907
   125   1 H    1.000 --   249 H    0.929
   126   1 H    1.000 --   250 H    0.946
   127   1 H    1.000 --   251 H    0.957
   128   1 H    1.000 --   252 H    0.941
   129   1 H    1.000 --   253 H    0.971
   130   1 H    0.973 --     1 N    0.960
   131   1 H    0.965 --     1 N    0.947
   132   1 H    0.984 --     2 C    0.955
   133   1 H    0.995 --     5 C    0.973
   134   1 H    0.993 --     5 C    0.971
   135   1 H    0.992 --     6 C    0.953
   136   1 H    0.993 --     6 C    0.963
   137   1 H    0.944 --     9 N    0.927
   138   1 H    0.938 --     9 N    0.918
   139   1 H    0.950 --    10 N    0.917
   140   1 H    0.990 --    11 C    0.948
   141   1 H    0.997 --    14 C    0.964
   142   1 H    0.998 --    15 C    0.972
   143   1 H    0.997 --    15 C    0.976
   144   1 H    0.997 --    16 C    0.978
   145   1 H    0.998 --    16 C    0.981
   146   1 H    0.996 --    16 C    0.977
   147   1 H    0.998 --    17 C    0.987
   148   1 H    0.997 --    17 C    0.984
   149   1 H    0.998 --    17 C    0.983
   150   1 H    0.952 --    18 N    0.920
   151   1 H    0.990 --    19 C    0.953
   152   1 H    0.992 --    22 C    0.967
   153   1 H    0.993 --    22 C    0.972
   154   1 H    0.981 --    23 C    0.961
   155   1 H    0.973 --    23 C    0.958
   156   1 H    0.990 --    25 C    0.970
   157   1 H    0.972 --    25 C    0.962
   158   1 H    0.972 --    25 C    0.962
   159   1 H    0.958 --    26 N    0.924
   160   1 H    0.991 --    27 C    0.940
   161   1 H    0.989 --    30 C    0.962
   162   1 H    0.993 --    30 C    0.963
   163   1 H    0.956 --    33 N    0.936
   164   1 H    0.944 --    33 N    0.924
   165   1 H    0.944 --    34 N    0.886
   166   1 H    0.990 --    35 C    0.945
   167   1 H    0.989 --    38 C    0.951
   168   1 H    0.985 --    38 C    0.943
   169   1 H    0.992 --    41 C    0.966
   170   1 H    0.941 --    44 N    0.890
   171   1 H    0.990 --    45 C    0.944
   172   1 H    0.983 --    48 C    0.957
   173   1 H    0.990 --    48 C    0.959
   174   1 H    0.962 --    49 S    0.862
   175   1 H    0.947 --    50 N    0.899
   176   1 H    0.983 --    51 C    0.926
   177   1 H    0.946 --    54 C    0.878
   178   1 H    0.983 --    54 C    0.951
   179   1 H    0.990 --    56 C    0.964
   180   1 H    0.990 --    60 C    0.958
   181   1 H    0.987 --    61 C    0.960
   182   1 H    0.992 --    62 C    0.968
   183   1 H    0.991 --    63 C    0.967
   184   1 H    0.949 --    64 N    0.911
   185   1 H    0.983 --    65 C    0.913
   186   1 H    0.991 --    66 C    0.949
   187   1 H    0.993 --    68 C    0.967
   188   1 H    0.993 --    68 C    0.970
   189   1 H    0.995 --    69 C    0.974
   190   1 H    0.994 --    69 C    0.975
   191   1 H    0.993 --    70 C    0.976
   192   1 H    0.994 --    70 C    0.968
   193   1 H    0.985 --    71 C    0.966
   194   1 H    0.985 --    71 C    0.970
   195   1 H    0.954 --    73 N    0.937
   196   1 H    0.963 --    73 N    0.943
   197   1 H    0.988 --    74 C    0.944
   198   1 H    0.989 --    77 C    0.954
   199   1 H    0.990 --    77 C    0.964
   200   1 H    0.951 --    81 N    0.914
   201   1 H    0.988 --    82 C    0.947
   202   1 H    0.993 --    85 C    0.965
   203   1 H    0.994 --    85 C    0.968
   204   1 H    0.995 --    86 C    0.967
   205   1 H    0.994 --    86 C    0.971
   206   1 H    0.991 --    87 C    0.956
   207   1 H    0.993 --    87 C    0.954
   208   1 H    0.940 --    90 N    0.907
   209   1 H    0.938 --    90 N    0.920
   210   1 H    0.936 --    91 N    0.910
   211   1 H    0.938 --    91 N    0.920
   212   1 H    0.988 --    93 C    0.940
   213   1 H    0.990 --    94 C    0.947
   214   1 H    0.993 --    96 C    0.967
   215   1 H    0.996 --    96 C    0.970
   216   1 H    0.994 --    97 C    0.970
   217   1 H    0.996 --    97 C    0.970
   218   1 H    0.993 --    98 C    0.965
   219   1 H    0.990 --    98 C    0.950
   220   1 H    0.945 --    99 N    0.930
   221   1 H    0.961 --    99 N    0.932
   222   1 H    0.983 --   100 C    0.944
   223   1 H    0.915 --   101 C    0.703   243 H    0.155
   224   1 H    0.995 --   103 C    0.968
   225   1 H    0.989 --   103 C    0.964
   226   1 H    0.991 --   104 C    0.969
   227   1 H    0.989 --   104 C    0.960
   228   1 H    0.990 --   105 C    0.958
   229   1 H    0.992 --   105 C    0.956
   230   1 H    0.940 --   108 N    0.916
   231   1 H    0.935 --   108 N    0.911
   232   1 H    0.939 --   109 N    0.921
   233   1 H    0.934 --   109 N    0.917
   234   1 H    1.000 --   110 H    0.994
   235   1 H    1.000 --   111 H    0.991
   236   1 H    1.000 --   112 H    0.981
   237   1 H    1.000 --   113 H    0.902
   238   1 H    1.000 --   114 H    0.965
   239   1 H    1.000 --   115 H    0.953
   240   1 H    0.999 --   116 H    0.896
   241   1 H    1.000 --   117 H    0.962
   242   1 H    1.000 --   118 H    0.919
   243   1 H    0.960 --   119 H    0.775   223 H    0.155
   244   1 H    0.999 --   120 H    0.988
   245   1 H    0.998 --   121 H    0.921
   246   1 H    0.997 --   122 H    0.917
   247   1 H    1.000 --   123 H    0.977
   248   1 H    1.000 --   124 H    0.907
   249   1 H    1.000 --   125 H    0.929
   250   1 H    1.000 --   126 H    0.946
   251   1 H    1.000 --   127 H    0.957
   252   1 H    1.000 --   128 H    0.941
   253   1 H    1.000 --   129 H    0.971
   254   1 H    0.908 --    72 N    0.897
   255   1 H    0.913 --    72 N    0.897
   256   1 H    0.906 --    72 N    0.894
   257   1 H    0.944 --    88 N    0.896
   258   1 H    0.947 --   106 N    0.914
   259   1 H    0.950 --    40 N    0.897
 ---------------------------------------------------------------------------

Topologies differ in total number of bonds
Writing topology from bond orders to xtbtopo.mol

molecular dipole:
                 x           y           z       tot (Debye)
 q only:      -22.589     -53.706     151.852
   full:      -21.401     -54.021     150.759     410.667
molecular quadrupole (traceless):
                xx          xy          yy          xz          yz          zz
 q only:    -2412.557     341.718   -1915.654   -1147.429   -2513.550    4328.211
  q+dip:    -2341.791     329.384   -1886.042   -1099.163   -2500.052    4227.834
   full:    -2350.325     329.794   -1883.909   -1098.441   -2501.152    4234.234


           -------------------------------------------------
          | TOTAL ENERGY             -357.894434321729 Eh   |
          | GRADIENT NORM               1.326619986699 Eh/α |
          | HOMO-LUMO GAP               0.028308109195 eV   |
           -------------------------------------------------
########################################################################
[WARNING] Runtime exception occurred
-2- restart_readRestart: Dimension missmatch in restart file.
-1- restart_readRestart: Number of electron missmatch in restart file.
########################################################################

------------------------------------------------------------------------
 * finished run on 2025/05/05 at 16:39:23.076     
------------------------------------------------------------------------
 total:
 * wall-time:     0 d,  0 h,  0 min,  2.350 sec
 *  cpu-time:     0 d,  0 h,  1 min, 13.840 sec
 * ratio c/w:    31.427 speedup
 SCF:
 * wall-time:     0 d,  0 h,  0 min,  2.322 sec
 *  cpu-time:     0 d,  0 h,  1 min, 13.113 sec
 * ratio c/w:    31.484 speedup

