      -----------------------------------------------------------      
     |                   =====================                   |     
     |                           x T B                           |     
     |                   =====================                   |     
     |                         S. Grimme                         |     
     |          Mulliken Center for Theoretical Chemistry        |     
     |                    University of Bonn                     |     
      -----------------------------------------------------------      

   * xtb version 6.7.1 (edcfbbe) compiled by 'conda@afd1a870197c' on 2025-04-11

   xtb is free software: you can redistribute it and/or modify it under
   the terms of the GNU Lesser General Public License as published by
   the Free Software Foundation, either version 3 of the License, or
   (at your option) any later version.
   
   xtb is distributed in the hope that it will be useful,
   but WITHOUT ANY WARRANTY; without even the implied warranty of
   MERCHANTABILITY or FITNESS FOR A PARTICULAR PURPOSE.  See the
   GNU Lesser General Public License for more details.
   
   Cite this work as:
   * C. Bannwarth, E. Caldeweyher, S. Ehlert, A. Hansen, P. Pracht,
     J. Seibert, S. Spicher, S. Grimme, WIREs Comput. Mol. Sci., 2020, 11,
     e01493. DOI: 10.1002/wcms.1493
   
   for GFN2-xTB:
   * C. Bannwarth, S. Ehlert and S. Grimme., J. Chem. Theory Comput., 2019,
     15, 1652-1671. DOI: 10.1021/acs.jctc.8b01176
   for GFN1-xTB:
   * S. Grimme, C. Bannwarth, P. Shushkov, J. Chem. Theory Comput., 2017,
     13, 1989-2009. DOI: 10.1021/acs.jctc.7b00118
   for GFN0-xTB:
   * P. Pracht, E. Caldeweyher, S. Ehlert, S. Grimme, ChemRxiv, 2019, preprint.
     DOI: 10.26434/chemrxiv.8326202.v1
   for GFN-FF:
   * S. Spicher and S. Grimme, Angew. Chem. Int. Ed., 2020, 59, 15665-15673.
     DOI: 10.1002/anie.202004239
   
   for ALPB and GBSA implicit solvation:
   * S. Ehlert, M. Stahn, S. Spicher, S. Grimme, J. Chem. Theory Comput.,
     2021, 17, 4250-4261. DOI: 10.1021/acs.jctc.1c00471
   
   for ddCOSMO and CPCM-X implicit solvation:
   * M. Stahn, S. Ehlert, S. Grimme, J. Phys. Chem. A,
     2023, XX, XXXX-XXXX. DOI: 10.1021/acs.jpca.3c04382
   
   for DFT-D4:
   * E. Caldeweyher, C. Bannwarth and S. Grimme, J. Chem. Phys., 2017,
     147, 034112. DOI: 10.1063/1.4993215
   * E. Caldeweyher, S. Ehlert, A. Hansen, H. Neugebauer, S. Spicher,
     C. Bannwarth and S. Grimme, J. Chem. Phys., 2019, 150, 154122.
     DOI: 10.1063/1.5090222
   * E. Caldeweyher, J.-M. Mewes, S. Ehlert and S. Grimme, Phys. Chem. Chem. Phys.
     2020, 22, 8499-8512. DOI: 10.1039/D0CP00502A
   
   for sTDA-xTB:
   * S. Grimme and C. Bannwarth, J. Chem. Phys., 2016, 145, 054103.
     DOI: 10.1063/1.4959605
   
   in the mass-spec context:
   * V. Asgeirsson, C. Bauer and S. Grimme, Chem. Sci., 2017, 8, 4879.
     DOI: 10.1039/c7sc00601b
   * J. Koopman and S. Grimme, ACS Omega 2019, 4, 12, 15120-15133.
     DOI: 10.1021/acsomega.9b02011
   
   for metadynamics refer to:
   * S. Grimme, J. Chem. Theory Comput., 2019, 155, 2847-2862
     DOI: 10.1021/acs.jctc.9b00143
   
   for SPH calculations refer to:
   * S. Spicher and S. Grimme, J. Chem. Theory Comput., 2021, 17, 1701-1714
     DOI: 10.1021/acs.jctc.0c01306
   
   for ONIOM refer to:
   * C. Plett, A. Katbashev, S. Ehlert, S. Grimme, M. Bursch,
     Phys. Chem. Chem. Phys., 2023, 25, 17860-17868. DOI: 10.1039/D3CP02178E
   
   for DIPRO refer to:
   * J. Kohn, N. Gildemeister, S. Grimme, D. Fazzi, A. Hansen,
     J. Chem. Phys., 2023, just accepted.
   
   for PTB refer to:
   * S. Grimme, M. Mueller, A. Hansen, J. Chem. Phys., 2023, 158, 124111.
     DOI: 10.1063/5.0137838
   
   with help from (in alphabetical order)
   P. Atkinson, C. Bannwarth, F. Bohle, G. Brandenburg, E. Caldeweyher
   M. Checinski, S. Dohm, S. Ehlert, S. Ehrlich, I. Gerasimov, C. Hölzer
   A. Katbashev, J. Kohn, J. Koopman, C. Lavigne, S. Lehtola, F. März, M. Müller,
   F. Musil, H. Neugebauer, J. Pisarek, C. Plett, P. Pracht, F. Pultar,
   J. Seibert, P. Shushkov, S. Spicher, M. Stahn, M. Steiner, T. Strunk,
   J. Stückrath, T. Rose, and J. Unsleber
   
 * started run on 2025/05/05 at 16:43:03.332     
   ID    Z sym.   atoms
    1    7 N      1, 8, 10-12, 19, 25, 28, 29, 35, 38, 39, 45, 52, 54-56, 65,
                  73, 82, 87
    2    6 C      2, 3, 5-7, 9, 13, 14, 16, 18, 20, 21, 23, 24, 26, 27, 30,
                  31, 33, 34, 36, 37, 40, 41, 43, 46, 47, 49-51, 53, 57, 58,
                  60-62, 66, 67, 69-72, 74, 75, 77-79, 83, 84, 86, 88, 89,
                  91-97
    3    8 O      4, 15, 17, 22, 32, 42, 44, 48, 59, 63, 64, 68, 76, 80, 81,
                  85, 90, 98
    4    1 H      99-226

           -------------------------------------------------
          |                Calculation Setup                |
           -------------------------------------------------

          program call               : xtb /tmp/tmpd_xbjbac/HID/input.xyz --alpb ether --chrg 0 --input /tmp/tmpd_xbjbac/HID/constraints.inp --gfn 2
          hostname                   : fedora
          coordinate file            : /tmp/tmpd_xbjbac/HID/input.xyz
          omp threads                :                    32


molecular fragmentation (1/2 indicates fragments):
111111111112222222222222222222222222222222222222222222222222222222222222
222222222222222222222222222222222222222222221111111111111122222222222222
222222222222222222222222222222222222222222222222222222222222222222222222
2222222122
# atoms in fragment 1/2:    26   200
 fragment masses (1/2) :      159.21     1260.57
CMA distance (Bohr)    :  17.034
constraining FC (au)   :  0.0500
########################################################################
[WARNING] Please study the warnings concerning your input carefully
-1- readin_getIntValue: could not parse 'S'
########################################################################

           -------------------------------------------------
          |                 G F N 2 - x T B                 |
           -------------------------------------------------

        Reference                      10.1021/acs.jctc.8b01176
      * Hamiltonian:
        H0-scaling (s, p, d)           1.850000    2.230000    2.230000
        zeta-weighting                 0.500000
      * Dispersion:
        s8                             2.700000
        a1                             0.520000
        a2                             5.000000
        s9                             5.000000
      * Repulsion:
        kExp                           1.500000    1.000000
        rExp                           1.000000
      * Coulomb:
        alpha                          2.000000
        third order                    shell-resolved
        anisotropic                    true
        a3                             3.000000
        a5                             4.000000
        cn-shift                       1.200000
        cn-exp                         4.000000
        max-rad                        5.000000

      * Solvation model:               ALPB
        Solvent                        ether
        Parameter file                 internal GFN2-xTB/ALPB
        Dielectric constant                4.3300E+00
        Reference state                gsolv [1 M gas/solution]
        Free energy shift                  4.9534E-03 Eh       3.1083E+00 kcal/mol
        Temperature                        2.9815E+02 K
        Density                            7.1300E-01 kg/L
        Solvent mass                       7.4120E+01 g/mol
        Interaction kernel             P16
        Born radius scaling (c1)           1.5847E+00
        Born radii integrator          GBOBC
        Born offset                        0.0000E+00 a0       0.0000E+00 AA
        H-bond correction              true
        Ion screening                  false
        Surface tension                    1.0000E-05 Eh       1.5569E+01 dyn/cm
        Grid points                               230 per atom

          ...................................................
          :                      SETUP                      :
          :.................................................:
          :  # basis functions                 520          :
          :  # atomic orbitals                 520          :
          :  # shells                          324          :
          :  # electrons                       577          :
          :  max. iterations                   250          :
          :  Hamiltonian                  GFN2-xTB          :
          :  restarted?                      false          :
          :  GBSA solvation                   true          :
          :  PC potential                    false          :
          :  electronic temp.          300.0000000     K    :
          :  accuracy                    1.0000000          :
          :  -> integral cutoff          0.2500000E+02      :
          :  -> integral neglect         0.1000000E-07      :
          :  -> SCF convergence          0.1000000E-05 Eh   :
          :  -> wf. convergence          0.1000000E-03 e    :
          :  Broyden damping             0.4000000          :
          :  net charge                          0          :
          :  unpaired electrons                  0          :
          ...................................................

 iter      E             dE          RMSdq      gap      omega  full diag
   1   -328.4220175 -0.328422E+03  0.438E+00    0.01       0.0  T
   2   -325.7098518  0.271217E+01  0.388E+00    0.33       1.0  T
   3   -328.6724021 -0.296255E+01  0.261E+00    0.11       1.0  T
   4   -329.4194457 -0.747044E+00  0.180E+00    0.67       1.0  T
   5   -329.6498438 -0.230398E+00  0.167E+00    0.79       1.0  T
   6   -329.5738844  0.759594E-01  0.147E+00    0.20       1.0  T
   7   -329.9565029 -0.382619E+00  0.112E+00    0.47       1.0  T
   8   -330.0964986 -0.139996E+00  0.810E-01    0.08       1.0  T
   9   -330.0091212  0.873774E-01  0.901E-01    0.29       1.0  T
  10   -330.1034783 -0.943572E-01  0.702E-01    0.10       1.0  T
  11   -330.1644399 -0.609616E-01  0.611E-01    0.31       1.0  T
  12   -330.2149298 -0.504899E-01  0.474E-01    0.00       1.0  T
  13   -330.0706187  0.144311E+00  0.700E-01    0.14       1.0  T
  14   -330.2630751 -0.192456E+00  0.362E-01    0.09       1.0  T
  15   -330.2547743  0.830081E-02  0.347E-01    0.04       1.0  T
  16   -330.2555601 -0.785820E-03  0.330E-01    0.03       1.0  T
  17   -330.2618276 -0.626749E-02  0.291E-01    0.04       1.0  T
  18   -330.2081844  0.536432E-01  0.441E-01    0.01       1.0  T
  19   -330.2772577 -0.690733E-01  0.161E-01    0.04       1.0  T
  20   -330.2659654  0.112923E-01  0.212E-01    0.09       1.0  T
  21   -330.2812936 -0.153283E-01  0.114E-01    0.04       1.0  T
  22   -330.2735458  0.774781E-02  0.164E-01    0.08       1.0  T
  23   -330.2843821 -0.108363E-01  0.609E-02    0.05       1.0  T
  24   -330.2818865  0.249565E-02  0.901E-02    0.06       1.0  T
  25   -330.2848543 -0.296785E-02  0.438E-02    0.05       1.0  T
  26   -330.2850871 -0.232812E-03  0.359E-02    0.05       1.0  T
  27   -330.2854779 -0.390734E-03  0.129E-02    0.05       1.0  T
  28   -330.2854368  0.410703E-04  0.156E-02    0.04       1.0  T
  29   -330.2855318 -0.949955E-04  0.305E-03    0.05       2.2  T
  30   -330.2855302  0.158608E-05  0.334E-03    0.05       2.0  T
  31   -330.2855315 -0.132811E-05  0.283E-03    0.05       2.3  T
  32   -330.2855333 -0.175659E-05  0.185E-03    0.05       3.6  T
  33   -330.2855346 -0.126543E-05  0.336E-04    0.05      19.8  T
  34   -330.2855346 -0.198274E-07  0.229E-04    0.05      29.0  T
  35   -330.2855346 -0.757171E-08  0.179E-04    0.05      37.1  T

   *** convergence criteria satisfied after 35 iterations ***

         #    Occupation            Energy/Eh            Energy/eV
      -------------------------------------------------------------
         1        2.0000           -0.7438671             -20.2417
       ...           ...                  ...                  ...
       283        2.0000           -0.3777427             -10.2789
       284        2.0000           -0.3730141             -10.1502
       285        1.9759           -0.3664997              -9.9730
       286        1.9159           -0.3652677              -9.9394
       287        1.9024           -0.3651162              -9.9353
       288        1.7300           -0.3640105              -9.9052
       289        1.0695           -0.3621364              -9.8542 (HOMO)
       290        0.4063           -0.3604498              -9.8083 (LUMO)
       291                         -0.3025722              -8.2334
       292                         -0.2895242              -7.8784
       293                         -0.2812170              -7.6523
       294                         -0.2436197              -6.6292
       ...                                ...                  ...
       520                          1.0633381              28.9349
      -------------------------------------------------------------
                  HL-Gap            0.0016867 Eh            0.0459 eV
             Fermi-level           -0.3619755 Eh           -9.8499 eV

 SCC (total)                   0 d,  0 h,  0 min,  1.636 sec
 SCC setup                      ...        0 min,  0.003 sec (  0.200%)
 Dispersion                     ...        0 min,  0.011 sec (  0.662%)
 classical contributions        ...        0 min,  0.000 sec (  0.025%)
 integral evaluation            ...        0 min,  0.018 sec (  1.124%)
 iterations                     ...        0 min,  1.541 sec ( 94.182%)
 molecular gradient             ...        0 min,  0.057 sec (  3.463%)
 printout                       ...        0 min,  0.006 sec (  0.341%)

         :::::::::::::::::::::::::::::::::::::::::::::::::::::
         ::                     SUMMARY                     ::
         :::::::::::::::::::::::::::::::::::::::::::::::::::::
         :: total energy            -324.654852920750 Eh    ::
         :: total w/o Gsasa/hb      -324.568132312218 Eh    ::
         :: gradient norm              1.229568992753 Eh/a0 ::
         :: HOMO-LUMO gap              0.045896439607 eV    ::
         ::.................................................::
         :: SCC energy              -330.259847417811 Eh    ::
         :: -> isotropic ES            0.894776153408 Eh    ::
         :: -> anisotropic ES          0.069811979680 Eh    ::
         :: -> anisotropic XC          0.197381644551 Eh    ::
         :: -> dispersion             -0.270309603338 Eh    ::
         :: -> Gsolv                  -0.201500073013 Eh    ::
         ::    -> Gelec               -0.114779464481 Eh    ::
         ::    -> Gsasa               -0.073266104468 Eh    ::
         ::    -> Ghb                 -0.018407941641 Eh    ::
         ::    -> Gshift               0.004953437577 Eh    ::
         :: repulsion energy           5.604994497062 Eh    ::
         :: add. restraining           0.000000000000 Eh    ::
         :: total charge               0.000000000000 e     ::
         :::::::::::::::::::::::::::::::::::::::::::::::::::::

           -------------------------------------------------
          |                Property Printout                |
           -------------------------------------------------

    * Orbital Energies and Occupations

         #    Occupation            Energy/Eh            Energy/eV
      -------------------------------------------------------------
         1        2.0000           -0.7438671             -20.2417
       ...           ...                  ...                  ...
       277        2.0000           -0.3854574             -10.4888
       278        2.0000           -0.3849492             -10.4750
       279        2.0000           -0.3843161             -10.4578
       280        2.0000           -0.3811847             -10.3726
       281        2.0000           -0.3806923             -10.3592
       282        2.0000           -0.3777786             -10.2799
       283        2.0000           -0.3777427             -10.2789
       284        2.0000           -0.3730141             -10.1502
       285        1.9759           -0.3664997              -9.9730
       286        1.9159           -0.3652677              -9.9394
       287        1.9024           -0.3651162              -9.9353
       288        1.7300           -0.3640105              -9.9052
       289        1.0695           -0.3621364              -9.8542 (HOMO)
       290        0.4063           -0.3604498              -9.8083 (LUMO)
       291                         -0.3025722              -8.2334
       292                         -0.2895242              -7.8784
       293                         -0.2812170              -7.6523
       294                         -0.2436197              -6.6292
       295                         -0.2407679              -6.5516
       296                         -0.2285885              -6.2202
       297                         -0.2280396              -6.2053
       298                         -0.2255385              -6.1372
       299                         -0.2216858              -6.0324
       300                         -0.2163632              -5.8875
       ...                                ...                  ...
       520                          1.0633381              28.9349
      -------------------------------------------------------------
                  HL-Gap            0.0016867 Eh            0.0459 eV
             Fermi-level           -0.3619755 Eh           -9.8499 eV

     #   Z          covCN         q      C6AA      α(0)
     1   7 N        2.636    -0.363    29.360     8.047
     2   6 C        3.785     0.032    20.043     6.377
     3   6 C        2.767     0.200    23.750     7.981
     4   8 O        0.856    -0.356    20.826     6.118
     5   6 C        3.811    -0.077    21.965     6.671
     6   6 C        3.808    -0.085    22.111     6.694
     7   6 C        3.742    -0.019    20.980     6.535
     8   7 N        2.702    -0.161    24.489     7.350
     9   6 C        2.736     0.239    23.008     7.853
    10   7 N        2.653    -0.244    26.359     7.625
    11   7 N        2.657    -0.269    26.969     7.713
    12   7 N        2.628    -0.388    30.035     8.139
    13   6 C        3.789     0.019    20.274     6.413
    14   6 C        2.759     0.272    22.408     7.752
    15   8 O        0.860    -0.514    24.092     6.581
    16   6 C        3.733     0.118    18.740     6.179
    17   8 O        1.653    -0.482    22.500     6.403
    18   6 C        3.759    -0.136    23.166     6.862
    19   7 N        2.688    -0.230    26.026     7.577
    20   6 C        3.800     0.025    20.151     6.391
    21   6 C        2.757     0.271    22.429     7.755
    22   8 O        0.859    -0.483    23.413     6.487
    23   6 C        3.811    -0.063    21.696     6.630
    24   6 C        3.081     0.054    26.713     8.473
    25   7 N        1.990    -0.211    26.390     7.619
    26   6 C        3.055     0.002    27.936     8.668
    27   6 C        2.101     0.127    27.777     8.516
    28   7 N        1.979    -0.251    27.348     7.755
    29   7 N        2.687    -0.161    24.474     7.347
    30   6 C        3.798     0.024    20.172     6.395
    31   6 C        2.751     0.272    22.406     7.751
    32   8 O        0.858    -0.491    23.592     6.512
    33   6 C        3.810    -0.084    22.096     6.691
    34   6 C        3.095     0.015    27.558     8.604
    35   7 N        2.848    -0.104    23.266     7.164
    36   6 C        3.060     0.005    27.843     8.653
    37   6 C        2.115    -0.002    30.882     8.980
    38   7 N        1.982    -0.264    27.681     7.803
    39   7 N        2.686    -0.192    25.161     7.450
    40   6 C        3.795     0.012    20.389     6.430
    41   6 C        2.760     0.279    22.286     7.731
    42   8 O        0.859    -0.483    23.403     6.486
    43   6 C        3.684     0.069    19.616     6.341
    44   8 O        1.654    -0.459    22.029     6.336
    45   7 N        2.688    -0.187    25.050     7.433
    46   6 C        3.802     0.015    20.326     6.419
    47   6 C        2.755     0.268    22.472     7.763
    48   8 O        0.859    -0.491    23.583     6.511
    49   6 C        3.808    -0.082    22.061     6.686
    50   6 C        3.804    -0.085    22.112     6.694
    51   6 C        3.741    -0.029    21.165     6.564
    52   7 N        2.697    -0.141    24.044     7.283
    53   6 C        2.736     0.238    23.019     7.855
    54   7 N        2.654    -0.267    26.914     7.705
    55   7 N        2.655    -0.257    26.668     7.670
    56   7 N        2.690    -0.180    24.895     7.410
    57   6 C        3.802     0.017    20.294     6.414
    58   6 C        2.758     0.268    22.482     7.765
    59   8 O        0.859    -0.487    23.508     6.501
    60   6 C        3.812    -0.056    21.562     6.610
    61   6 C        3.809    -0.086    22.143     6.698
    62   6 C        2.689     0.367    20.782     7.461
    63   8 O        0.856    -0.563    25.218     6.733
    64   8 O        0.857    -0.573    25.460     6.765
    65   7 N        2.689    -0.168    24.638     7.372
    66   6 C        3.799     0.020    20.233     6.404
    67   6 C        2.768     0.210    23.547     7.947
    68   8 O        0.856    -0.356    20.814     6.117
    69   6 C        3.856    -0.016    20.819     6.489
    70   6 C        3.808    -0.066    21.761     6.640
    71   6 C        3.764    -0.126    22.956     6.829
    72   6 C        3.755    -0.117    22.803     6.809
    73   7 N        2.630    -0.354    29.126     8.015
    74   6 C        3.790     0.035    19.990     6.367
    75   6 C        2.758     0.265    22.526     7.772
    76   8 O        0.859    -0.484    23.425     6.489
    77   6 C        3.812    -0.062    21.679     6.627
    78   6 C        3.807    -0.091    22.233     6.712
    79   6 C        2.689     0.364    20.822     7.468
    80   8 O        0.857    -0.611    26.389     6.887
    81   8 O        0.857    -0.606    26.264     6.871
    82   7 N        2.692    -0.171    24.698     7.381
    83   6 C        3.800     0.025    20.160     6.393
    84   6 C        2.754     0.267    22.487     7.765
    85   8 O        0.859    -0.501    23.800     6.541
    86   6 C        3.763    -0.134    23.119     6.854
    87   7 N        2.689    -0.154    24.330     7.326
    88   6 C        3.794     0.027    20.120     6.387
    89   6 C        2.768     0.169    24.340     8.080
    90   8 O        0.856    -0.351    20.733     6.105
    91   6 C        3.814    -0.074    21.910     6.662
    92   6 C        2.969    -0.006    28.174     8.707
    93   6 C        2.930    -0.049    29.214     8.864
    94   6 C        2.930    -0.043    29.073     8.843
    95   6 C        2.921    -0.075    29.870     8.963
    96   6 C        2.921    -0.058    29.442     8.898
    97   6 C        2.855     0.145    24.840     8.169
    98   8 O        1.661    -0.439    21.619     6.277
    99   1 H        0.980     0.004     2.982     2.698
   100   1 H        0.980     0.003     3.001     2.707
   101   1 H        0.980    -0.013     3.275     2.828
   102   1 H        0.980    -0.007     3.176     2.785
   103   1 H        0.980     0.007     2.925     2.672
   104   1 H        0.980     0.004     2.973     2.694
   105   1 H        0.980    -0.003     3.096     2.749
   106   1 H        0.980    -0.002     3.084     2.744
   107   1 H        0.980    -0.003     3.101     2.752
   108   1 H        0.980    -0.013     3.292     2.835
   109   1 H        0.980     0.008     2.919     2.670
   110   1 H        0.980     0.030     2.584     2.512
   111   1 H        0.980     0.007     2.923     2.671
   112   1 H        0.980     0.016     2.784     2.607
   113   1 H        0.980    -0.022     3.457     2.905
   114   1 H        0.980     0.011     2.872     2.648
   115   1 H        0.980     0.017     2.778     2.604
   116   1 H        0.980    -0.022     3.459     2.906
   117   1 H        0.860     0.165     1.305     1.790
   118   1 H        0.860     0.168     1.282     1.774
   119   1 H        0.927     0.057     2.238     2.339
   120   1 H        0.929     0.066     2.134     2.284
   121   1 H        0.927     0.060     2.194     2.316
   122   1 H        0.927     0.059     2.209     2.324
   123   1 H        0.927     0.057     2.235     2.338
   124   1 H        0.927     0.068     2.108     2.270
   125   1 H        0.927     0.075     2.030     2.228
   126   1 H        0.927     0.070     2.089     2.260
   127   1 H        0.861     0.226     0.983     1.553
   128   1 H        0.861     0.247     0.893     1.480
   129   1 H        0.861     0.228     0.975     1.547
   130   1 H        0.861     0.261     0.842     1.437
   131   1 H        0.860     0.150     1.403     1.855
   132   1 H        0.860     0.171     1.266     1.763
   133   1 H        0.926     0.031     2.572     2.508
   134   1 H        0.927     0.049     2.332     2.388
   135   1 H        0.804     0.327     0.646     1.263
   136   1 H        0.927     0.061     2.190     2.314
   137   1 H        0.927     0.047     2.363     2.404
   138   1 H        0.927     0.062     2.177     2.307
   139   1 H        0.861     0.235     0.945     1.523
   140   1 H        0.926     0.078     1.997     2.210
   141   1 H        0.927     0.072     2.059     2.244
   142   1 H        0.927     0.074     2.043     2.235
   143   1 H        0.929     0.054     2.273     2.358
   144   1 H        0.861     0.203     1.090     1.636
   145   1 H        0.927     0.094     1.838     2.120
   146   1 H        0.926     0.074     2.038     2.233
   147   1 H        0.927     0.081     1.964     2.191
   148   1 H        0.929     0.038     2.471     2.458
   149   1 H        0.861     0.234     0.949     1.526
   150   1 H        0.927     0.097     1.813     2.106
   151   1 H        0.927     0.053     2.285     2.364
   152   1 H        0.927     0.082     1.963     2.191
   153   1 H        0.804     0.316     0.676     1.292
   154   1 H        0.861     0.215     1.033     1.592
   155   1 H        0.926     0.098     1.808     2.102
   156   1 H        0.927     0.079     1.993     2.208
   157   1 H        0.926     0.066     2.127     2.281
   158   1 H        0.927     0.064     2.156     2.296
   159   1 H        0.927     0.073     2.057     2.243
   160   1 H        0.927     0.092     1.864     2.135
   161   1 H        0.927     0.086     1.920     2.167
   162   1 H        0.861     0.237     0.934     1.514
   163   1 H        0.861     0.246     0.898     1.485
   164   1 H        0.861     0.249     0.885     1.474
   165   1 H        0.861     0.245     0.902     1.488
   166   1 H        0.861     0.214     1.039     1.597
   167   1 H        0.926     0.092     1.860     2.133
   168   1 H        0.927     0.056     2.248     2.345
   169   1 H        0.927     0.052     2.294     2.369
   170   1 H        0.927     0.050     2.326     2.385
   171   1 H        0.927     0.054     2.266     2.354
   172   1 H        0.861     0.225     0.987     1.556
   173   1 H        0.927     0.085     1.933     2.174
   174   1 H        0.929     0.067     2.113     2.273
   175   1 H        0.927     0.053     2.281     2.362
   176   1 H        0.927     0.037     2.494     2.470
   177   1 H        0.927     0.048     2.343     2.394
   178   1 H        0.926     0.050     2.319     2.381
   179   1 H        0.927     0.039     2.466     2.456
   180   1 H        0.927     0.066     2.127     2.281
   181   1 H        0.926     0.040     2.453     2.449
   182   1 H        0.927     0.045     2.378     2.412
   183   1 H        0.927     0.050     2.321     2.382
   184   1 H        0.860     0.160     1.336     1.811
   185   1 H        0.860     0.162     1.325     1.803
   186   1 H        0.927     0.021     2.711     2.575
   187   1 H        0.926     0.051     2.308     2.376
   188   1 H        0.927     0.046     2.369     2.407
   189   1 H        0.927     0.046     2.367     2.406
   190   1 H        0.927     0.049     2.332     2.388
   191   1 H        0.861     0.205     1.081     1.629
   192   1 H        0.927     0.082     1.960     2.189
   193   1 H        0.927     0.066     2.130     2.282
   194   1 H        0.927     0.075     2.032     2.229
   195   1 H        0.927     0.067     2.117     2.275
   196   1 H        0.861     0.217     1.024     1.585
   197   1 H        0.927     0.086     1.914     2.163
   198   1 H        0.929     0.113     1.672     2.022
   199   1 H        0.927     0.068     2.103     2.268
   200   1 H        0.927     0.076     2.023     2.224
   201   1 H        0.929     0.050     2.319     2.381
   202   1 H        0.929     0.055     2.252     2.347
   203   1 H        0.929     0.039     2.458     2.451
   204   1 H        0.929     0.068     2.102     2.267
   205   1 H        0.807     0.337     0.620     1.237
   206   1 H        0.980    -0.000     3.049     2.728
   207   1 H        0.980    -0.005     3.132     2.766
   208   1 H        0.980     0.011     2.863     2.644
   209   1 H        0.980     0.009     2.891     2.657
   210   1 H        0.980    -0.009     3.200     2.795
   211   1 H        0.980    -0.004     3.124     2.762
   212   1 H        0.980     0.002     3.016     2.714
   213   1 H        0.980     0.004     2.980     2.697
   214   1 H        0.980     0.003     3.002     2.707
   215   1 H        0.980     0.012     2.844     2.635
   216   1 H        0.980    -0.008     3.187     2.789
   217   1 H        0.980     0.062     2.174     2.304
   218   1 H        0.980    -0.007     3.170     2.782
   219   1 H        0.980    -0.011     3.244     2.814
   220   1 H        0.980     0.021     2.709     2.572
   221   1 H        0.980    -0.010     3.230     2.808
   222   1 H        0.980    -0.016     3.333     2.853
   223   1 H        0.980     0.022     2.691     2.563
   224   1 H        0.860     0.219     1.014     1.578
   225   1 H        0.860     0.224     0.991     1.560
   226   1 H        0.858     0.188     1.168     1.693

 Mol. C6AA /au·bohr⁶  :     435183.944306
 Mol. C8AA /au·bohr⁸  :    9290997.808103
 Mol. α(0) /au        :        995.717650


Wiberg/Mayer (AO) data.
largest (>0.10) Wiberg bond orders for each atom

 ---------------------------------------------------------------------------
     #   Z sym  total        # sym  WBO       # sym  WBO       # sym  WBO
 ---------------------------------------------------------------------------
     1   7 N    3.001 --     2 C    1.015   118 H    0.955   117 H    0.955
     2   6 C    3.987 --     1 N    1.015     3 C    0.978   119 H    0.963
                             5 C    0.957
     3   6 C    3.896 --     4 O    1.912     2 C    0.978   120 H    0.951
     4   8 O    2.050 --     3 C    1.912
     5   6 C    3.993 --     6 C    1.005   121 H    0.975   122 H    0.970
                             2 C    0.957
     6   6 C    3.993 --     5 C    1.005     7 C    1.005   123 H    0.977
                           124 H    0.973
     7   6 C    3.959 --     6 C    1.005     8 N    0.980   126 H    0.965
                           125 H    0.965
     8   7 N    3.431 --     9 C    1.284     7 C    0.980   224 H    0.919
                            11 N    0.102
     9   6 C    3.976 --    11 N    1.339    10 N    1.327     8 N    1.284
    10   7 N    3.407 --     9 C    1.327   127 H    0.927   128 H    0.892
                            11 N    0.109
    11   7 N    3.394 --     9 C    1.339   129 H    0.928   130 H    0.843
                            10 N    0.109     8 N    0.102
    12   7 N    2.977 --    13 C    1.010   131 H    0.961   132 H    0.947
    13   6 C    3.985 --    12 N    1.010    16 C    0.962   133 H    0.954
                            14 C    0.941
    14   6 C    3.949 --    15 O    1.615    19 N    1.320    13 C    0.941
    15   8 O    1.927 --    14 C    1.615    19 N    0.196
    16   6 C    3.958 --    18 C    1.003    17 O    0.987   134 H    0.964
                            13 C    0.962
    17   8 O    1.935 --    16 C    0.987   135 H    0.876
    18   6 C    3.993 --    16 C    1.003   137 H    0.984   138 H    0.982
                           136 H    0.976
    19   7 N    3.448 --    14 C    1.320    20 C    0.979   139 H    0.804
                            15 O    0.196
    20   6 C    3.969 --    19 N    0.979    23 C    0.960   140 H    0.957
                            21 C    0.938
    21   6 C    3.949 --    22 O    1.641    29 N    1.296    20 C    0.938
    22   8 O    1.947 --    21 C    1.641    29 N    0.197
    23   6 C    3.990 --    24 C    1.016    20 C    0.960   141 H    0.956
                           142 H    0.951
    24   6 C    3.893 --    26 C    1.513    25 N    1.179    23 C    1.016
                            27 C    0.113
    25   7 N    3.052 --    27 C    1.661    24 C    1.179    28 N    0.108
    26   6 C    3.898 --    24 C    1.513    28 N    1.219   143 H    0.970
                            27 C    0.107
    27   6 C    3.454 --    25 N    1.661    28 N    1.523    24 C    0.113
                            26 C    0.107
    28   7 N    2.920 --    27 C    1.523    26 C    1.219    25 N    0.108
    29   7 N    3.473 --    21 C    1.296    30 C    0.984   144 H    0.927
                            22 O    0.197
    30   6 C    3.966 --    29 N    0.984    33 C    0.965    31 C    0.941
                           145 H    0.933
    31   6 C    3.947 --    32 O    1.603    39 N    1.307    30 C    0.941
    32   8 O    1.966 --    31 C    1.603    39 N    0.188
    33   6 C    3.987 --    34 C    1.017    30 C    0.965   146 H    0.962
                           147 H    0.946
    34   6 C    3.914 --    36 C    1.563    35 N    1.150    33 C    1.017
                            37 C    0.112
    35   7 N    3.531 --    37 C    1.300    34 C    1.150   226 H    0.851
    36   6 C    3.916 --    34 C    1.563    38 N    1.229   148 H    0.971
    37   6 C    3.171 --    38 N    1.644    35 N    1.300    34 C    0.112
    38   7 N    3.038 --    37 C    1.644    36 C    1.229
    39   7 N    3.460 --    31 C    1.307    40 C    0.973   149 H    0.889
                            32 O    0.188
    40   6 C    3.962 --    39 N    0.973    43 C    0.970    41 C    0.940
                           150 H    0.939
    41   6 C    3.952 --    42 O    1.645    45 N    1.288    40 C    0.940
    42   8 O    1.959 --    41 C    1.645    45 N    0.194
    43   6 C    3.955 --    44 O    1.004    40 C    0.970   152 H    0.967
                           151 H    0.967
    44   8 O    1.947 --    43 C    1.004   153 H    0.883
    45   7 N    3.456 --    41 C    1.288    46 C    0.970   154 H    0.849
                            42 O    0.194
    46   6 C    3.956 --    49 C    0.980    45 N    0.970   155 H    0.940
                            47 C    0.937
    47   6 C    3.952 --    48 O    1.627    56 N    1.311    46 C    0.937
    48   8 O    1.947 --    47 C    1.627    56 N    0.198
    49   6 C    3.978 --    50 C    1.006    46 C    0.980   156 H    0.969
                           157 H    0.959
    50   6 C    3.990 --    49 C    1.006    51 C    0.995   158 H    0.976
                           159 H    0.970
    51   6 C    3.956 --    50 C    0.995    52 N    0.983   160 H    0.965
                           161 H    0.952
    52   7 N    3.467 --    53 C    1.312    51 C    0.983   225 H    0.911
                            55 N    0.107
    53   6 C    3.977 --    55 N    1.341    52 N    1.312    54 N    1.295
    54   7 N    3.369 --    53 C    1.295   163 H    0.921   162 H    0.905
                            55 N    0.101
    55   7 N    3.410 --    53 C    1.341   165 H    0.920   164 H    0.877
                            52 N    0.107    54 N    0.101
    56   7 N    3.476 --    47 C    1.311    57 C    0.976   166 H    0.895
                            48 O    0.198
    57   6 C    3.956 --    56 N    0.976    60 C    0.969   167 H    0.951
                            58 C    0.938
    58   6 C    3.950 --    59 O    1.630    65 N    1.307    57 C    0.938
    59   8 O    1.945 --    58 C    1.630    65 N    0.200
    60   6 C    3.988 --    61 C    1.006   168 H    0.974   169 H    0.972
                            57 C    0.969
    61   6 C    3.949 --    60 C    1.006   171 H    0.962   170 H    0.959
                            62 C    0.924
    62   6 C    3.926 --    63 O    1.498    64 O    1.469    61 C    0.924
    63   8 O    1.842 --    62 C    1.498    64 O    0.205
    64   8 O    1.839 --    62 C    1.469    63 O    0.205
    65   7 N    3.478 --    58 C    1.307    66 C    0.978   172 H    0.899
                            59 O    0.200
    66   6 C    3.964 --    67 C    0.983    65 N    0.978   173 H    0.956
                            69 C    0.931
    67   6 C    3.901 --    68 O    1.899    66 C    0.983   174 H    0.948
    68   8 O    2.049 --    67 C    1.899
    69   6 C    3.987 --    71 C    1.011    70 C    0.995   175 H    0.966
                            66 C    0.931
    70   6 C    3.995 --    72 C    1.013    69 C    0.995   176 H    0.979
                           177 H    0.978
    71   6 C    3.993 --    69 C    1.011   178 H    0.985   179 H    0.977
                           180 H    0.972
    72   6 C    3.994 --    70 C    1.013   182 H    0.986   183 H    0.981
                           181 H    0.977
    73   7 N    2.979 --    74 C    1.015   184 H    0.960   185 H    0.941
    74   6 C    3.985 --    73 N    1.015    77 C    0.977   186 H    0.951
                            75 C    0.951
    75   6 C    3.947 --    76 O    1.644    82 N    1.285    74 C    0.951
    76   8 O    1.948 --    75 C    1.644    82 N    0.190
    77   6 C    3.991 --    78 C    1.003    74 C    0.977   188 H    0.977
                           187 H    0.967
    78   6 C    3.955 --    77 C    1.003   189 H    0.968   190 H    0.944
                            79 C    0.929
    79   6 C    3.929 --    80 O    1.500    81 O    1.469    78 C    0.929
    80   8 O    1.798 --    79 C    1.500    81 O    0.208
    81   8 O    1.796 --    79 C    1.469    80 O    0.208
    82   7 N    3.458 --    75 C    1.285    83 C    0.980   191 H    0.928
                            76 O    0.190
    83   6 C    3.967 --    86 C    0.991    82 N    0.980   192 H    0.953
                            84 C    0.936
    84   6 C    3.948 --    85 O    1.603    87 N    1.322    83 C    0.936
    85   8 O    1.938 --    84 C    1.603    87 N    0.193
    86   6 C    3.985 --    83 C    0.991   193 H    0.983   195 H    0.981
                           194 H    0.979
    87   7 N    3.492 --    84 C    1.322    88 C    0.970   196 H    0.923
                            85 O    0.193
    88   6 C    3.963 --    89 C    0.983    87 N    0.970   197 H    0.953
                            91 C    0.939
    89   6 C    3.889 --    90 O    1.904    88 C    0.983   198 H    0.854
    90   8 O    2.052 --    89 C    1.904
    91   6 C    3.986 --    92 C    1.008   199 H    0.969   200 H    0.967
                            88 C    0.939
    92   6 C    3.986 --    93 C    1.406    94 C    1.400    91 C    1.008
    93   6 C    3.991 --    95 C    1.451    92 C    1.406   201 H    0.970
                            96 C    0.106
    94   6 C    3.992 --    96 C    1.463    92 C    1.400   202 H    0.970
                            95 C    0.103
    95   6 C    3.989 --    93 C    1.451    97 C    1.374   203 H    0.969
                            94 C    0.103
    96   6 C    3.989 --    94 C    1.463    97 C    1.366   204 H    0.968
                            93 C    0.106
    97   6 C    3.934 --    95 C    1.374    96 C    1.366    98 O    1.059
    98   8 O    2.082 --    97 C    1.059   205 H    0.867
    99   1 H    1.000 --   206 H    0.981
   100   1 H    1.000 --   207 H    0.977
   101   1 H    1.000 --   208 H    0.992
   102   1 H    1.000 --   209 H    0.974
   103   1 H    1.000 --   210 H    0.983
   104   1 H    1.000 --   211 H    0.989
   105   1 H    1.000 --   212 H    0.984
   106   1 H    1.000 --   213 H    0.987
   107   1 H    1.000 --   214 H    0.996
   108   1 H    1.000 --   215 H    0.975
   109   1 H    1.000 --   216 H    0.968
   110   1 H    0.999 --   217 H    0.889
   111   1 H    1.000 --   218 H    0.919
   112   1 H    0.999 --   219 H    0.975
   113   1 H    0.999 --   220 H    0.944
   114   1 H    1.000 --   221 H    0.945
   115   1 H    1.000 --   222 H    0.927
   116   1 H    0.999 --   223 H    0.929
   117   1 H    0.973 --     1 N    0.955
   118   1 H    0.972 --     1 N    0.955
   119   1 H    0.997 --     2 C    0.963
   120   1 H    0.996 --     3 C    0.951
   121   1 H    0.996 --     5 C    0.975
   122   1 H    0.996 --     5 C    0.970
   123   1 H    0.997 --     6 C    0.977
   124   1 H    0.995 --     6 C    0.973
   125   1 H    0.994 --     7 C    0.965
   126   1 H    0.995 --     7 C    0.965
   127   1 H    0.949 --    10 N    0.927
   128   1 H    0.939 --    10 N    0.892
   129   1 H    0.948 --    11 N    0.928
   130   1 H    0.931 --    11 N    0.843
   131   1 H    0.978 --    12 N    0.961
   132   1 H    0.971 --    12 N    0.947
   133   1 H    0.999 --    13 C    0.954
   134   1 H    0.998 --    16 C    0.964
   135   1 H    0.893 --    17 O    0.876
   136   1 H    0.996 --    18 C    0.976
   137   1 H    0.998 --    18 C    0.984
   138   1 H    0.996 --    18 C    0.982
   139   1 H    0.945 --    19 N    0.804
   140   1 H    0.994 --    20 C    0.957
   141   1 H    0.993 --    23 C    0.956
   142   1 H    0.991 --    23 C    0.951
   143   1 H    0.997 --    26 C    0.970
   144   1 H    0.959 --    29 N    0.927
   145   1 H    0.990 --    30 C    0.933
   146   1 H    0.991 --    33 C    0.962
   147   1 H    0.992 --    33 C    0.946
   148   1 H    0.997 --    36 C    0.971
   149   1 H    0.945 --    39 N    0.889
   150   1 H    0.990 --    40 C    0.939
   151   1 H    0.997 --    43 C    0.967
   152   1 H    0.993 --    43 C    0.967
   153   1 H    0.900 --    44 O    0.883
   154   1 H    0.954 --    45 N    0.849
   155   1 H    0.989 --    46 C    0.940
   156   1 H    0.993 --    49 C    0.969
   157   1 H    0.995 --    49 C    0.959
   158   1 H    0.996 --    50 C    0.976
   159   1 H    0.993 --    50 C    0.970
   160   1 H    0.991 --    51 C    0.965
   161   1 H    0.993 --    51 C    0.952
   162   1 H    0.943 --    54 N    0.905
   163   1 H    0.939 --    54 N    0.921
   164   1 H    0.938 --    55 N    0.877
   165   1 H    0.940 --    55 N    0.920
   166   1 H    0.954 --    56 N    0.895
   167   1 H    0.990 --    57 C    0.951
   168   1 H    0.996 --    60 C    0.974
   169   1 H    0.997 --    60 C    0.972
   170   1 H    0.996 --    61 C    0.959
   171   1 H    0.996 --    61 C    0.962
   172   1 H    0.949 --    65 N    0.899
   173   1 H    0.993 --    66 C    0.956
   174   1 H    0.995 --    67 C    0.948
   175   1 H    0.997 --    69 C    0.966
   176   1 H    0.999 --    70 C    0.979
   177   1 H    0.998 --    70 C    0.978
   178   1 H    0.997 --    71 C    0.985
   179   1 H    0.998 --    71 C    0.977
   180   1 H    0.995 --    71 C    0.972
   181   1 H    0.998 --    72 C    0.977
   182   1 H    0.997 --    72 C    0.986
   183   1 H    0.997 --    72 C    0.981
   184   1 H    0.974 --    73 N    0.960
   185   1 H    0.973 --    73 N    0.941
   186   1 H    0.994 --    74 C    0.951
   187   1 H    0.997 --    77 C    0.967
   188   1 H    0.995 --    77 C    0.977
   189   1 H    0.997 --    78 C    0.968
   190   1 H    0.997 --    78 C    0.944
   191   1 H    0.958 --    82 N    0.928
   192   1 H    0.993 --    83 C    0.953
   193   1 H    0.996 --    86 C    0.983
   194   1 H    0.994 --    86 C    0.979
   195   1 H    0.995 --    86 C    0.981
   196   1 H    0.953 --    87 N    0.923
   197   1 H    0.993 --    88 C    0.953
   198   1 H    0.987 --    89 C    0.854
   199   1 H    0.994 --    91 C    0.969
   200   1 H    0.994 --    91 C    0.967
   201   1 H    0.997 --    93 C    0.970
   202   1 H    0.997 --    94 C    0.970
   203   1 H    0.998 --    95 C    0.969
   204   1 H    0.995 --    96 C    0.968
   205   1 H    0.887 --    98 O    0.867
   206   1 H    1.000 --    99 H    0.981
   207   1 H    1.000 --   100 H    0.977
   208   1 H    1.000 --   101 H    0.992
   209   1 H    1.000 --   102 H    0.974
   210   1 H    1.000 --   103 H    0.983
   211   1 H    1.000 --   104 H    0.989
   212   1 H    1.000 --   105 H    0.984
   213   1 H    1.000 --   106 H    0.987
   214   1 H    1.000 --   107 H    0.996
   215   1 H    1.000 --   108 H    0.975
   216   1 H    1.000 --   109 H    0.968
   217   1 H    0.996 --   110 H    0.889
   218   1 H    1.000 --   111 H    0.919
   219   1 H    1.000 --   112 H    0.975
   220   1 H    1.000 --   113 H    0.944
   221   1 H    1.000 --   114 H    0.945
   222   1 H    1.000 --   115 H    0.927
   223   1 H    0.999 --   116 H    0.929
   224   1 H    0.952 --     8 N    0.919
   225   1 H    0.950 --    52 N    0.911
   226   1 H    0.965 --    35 N    0.851
 ---------------------------------------------------------------------------

Topologies differ in total number of bonds
Writing topology from bond orders to xtbtopo.mol

molecular dipole:
                 x           y           z       tot (Debye)
 q only:       -1.356       2.886      -1.093
   full:       -2.597       3.390      -1.685      11.668
molecular quadrupole (traceless):
                xx          xy          yy          xz          yz          zz
 q only:     -104.417     531.473     166.963    -549.331     662.193     -62.546
  q+dip:     -248.140     607.919     362.113    -904.667     764.414    -113.973
   full:     -256.184     608.232     364.457    -905.234     763.953    -108.273


           -------------------------------------------------
          | TOTAL ENERGY             -324.654852920750 Eh   |
          | GRADIENT NORM               1.229568992753 Eh/α |
          | HOMO-LUMO GAP               0.045896439607 eV   |
           -------------------------------------------------
########################################################################
[WARNING] Runtime exception occurred
-2- restart_readRestart: Dimension missmatch in restart file.
-1- restart_readRestart: Number of electron missmatch in restart file.
########################################################################

------------------------------------------------------------------------
 * finished run on 2025/05/05 at 16:43:04.991     
------------------------------------------------------------------------
 total:
 * wall-time:     0 d,  0 h,  0 min,  1.659 sec
 *  cpu-time:     0 d,  0 h,  0 min, 49.091 sec
 * ratio c/w:    29.587 speedup
 SCF:
 * wall-time:     0 d,  0 h,  0 min,  1.638 sec
 *  cpu-time:     0 d,  0 h,  0 min, 48.545 sec
 * ratio c/w:    29.630 speedup

