      -----------------------------------------------------------      
     |                   =====================                   |     
     |                           x T B                           |     
     |                   =====================                   |     
     |                         S. Grimme                         |     
     |          Mulliken Center for Theoretical Chemistry        |     
     |                    University of Bonn                     |     
      -----------------------------------------------------------      

   * xtb version 6.7.1 (edcfbbe) compiled by 'conda@afd1a870197c' on 2025-04-11

   xtb is free software: you can redistribute it and/or modify it under
   the terms of the GNU Lesser General Public License as published by
   the Free Software Foundation, either version 3 of the License, or
   (at your option) any later version.
   
   xtb is distributed in the hope that it will be useful,
   but WITHOUT ANY WARRANTY; without even the implied warranty of
   MERCHANTABILITY or FITNESS FOR A PARTICULAR PURPOSE.  See the
   GNU Lesser General Public License for more details.
   
   Cite this work as:
   * C. Bannwarth, E. Caldeweyher, S. Ehlert, A. Hansen, P. Pracht,
     J. Seibert, S. Spicher, S. Grimme, WIREs Comput. Mol. Sci., 2020, 11,
     e01493. DOI: 10.1002/wcms.1493
   
   for GFN2-xTB:
   * C. Bannwarth, S. Ehlert and S. Grimme., J. Chem. Theory Comput., 2019,
     15, 1652-1671. DOI: 10.1021/acs.jctc.8b01176
   for GFN1-xTB:
   * S. Grimme, C. Bannwarth, P. Shushkov, J. Chem. Theory Comput., 2017,
     13, 1989-2009. DOI: 10.1021/acs.jctc.7b00118
   for GFN0-xTB:
   * P. Pracht, E. Caldeweyher, S. Ehlert, S. Grimme, ChemRxiv, 2019, preprint.
     DOI: 10.26434/chemrxiv.8326202.v1
   for GFN-FF:
   * S. Spicher and S. Grimme, Angew. Chem. Int. Ed., 2020, 59, 15665-15673.
     DOI: 10.1002/anie.202004239
   
   for ALPB and GBSA implicit solvation:
   * S. Ehlert, M. Stahn, S. Spicher, S. Grimme, J. Chem. Theory Comput.,
     2021, 17, 4250-4261. DOI: 10.1021/acs.jctc.1c00471
   
   for ddCOSMO and CPCM-X implicit solvation:
   * M. Stahn, S. Ehlert, S. Grimme, J. Phys. Chem. A,
     2023, XX, XXXX-XXXX. DOI: 10.1021/acs.jpca.3c04382
   
   for DFT-D4:
   * E. Caldeweyher, C. Bannwarth and S. Grimme, J. Chem. Phys., 2017,
     147, 034112. DOI: 10.1063/1.4993215
   * E. Caldeweyher, S. Ehlert, A. Hansen, H. Neugebauer, S. Spicher,
     C. Bannwarth and S. Grimme, J. Chem. Phys., 2019, 150, 154122.
     DOI: 10.1063/1.5090222
   * E. Caldeweyher, J.-M. Mewes, S. Ehlert and S. Grimme, Phys. Chem. Chem. Phys.
     2020, 22, 8499-8512. DOI: 10.1039/D0CP00502A
   
   for sTDA-xTB:
   * S. Grimme and C. Bannwarth, J. Chem. Phys., 2016, 145, 054103.
     DOI: 10.1063/1.4959605
   
   in the mass-spec context:
   * V. Asgeirsson, C. Bauer and S. Grimme, Chem. Sci., 2017, 8, 4879.
     DOI: 10.1039/c7sc00601b
   * J. Koopman and S. Grimme, ACS Omega 2019, 4, 12, 15120-15133.
     DOI: 10.1021/acsomega.9b02011
   
   for metadynamics refer to:
   * S. Grimme, J. Chem. Theory Comput., 2019, 155, 2847-2862
     DOI: 10.1021/acs.jctc.9b00143
   
   for SPH calculations refer to:
   * S. Spicher and S. Grimme, J. Chem. Theory Comput., 2021, 17, 1701-1714
     DOI: 10.1021/acs.jctc.0c01306
   
   for ONIOM refer to:
   * C. Plett, A. Katbashev, S. Ehlert, S. Grimme, M. Bursch,
     Phys. Chem. Chem. Phys., 2023, 25, 17860-17868. DOI: 10.1039/D3CP02178E
   
   for DIPRO refer to:
   * J. Kohn, N. Gildemeister, S. Grimme, D. Fazzi, A. Hansen,
     J. Chem. Phys., 2023, just accepted.
   
   for PTB refer to:
   * S. Grimme, M. Mueller, A. Hansen, J. Chem. Phys., 2023, 158, 124111.
     DOI: 10.1063/5.0137838
   
   with help from (in alphabetical order)
   P. Atkinson, C. Bannwarth, F. Bohle, G. Brandenburg, E. Caldeweyher
   M. Checinski, S. Dohm, S. Ehlert, S. Ehrlich, I. Gerasimov, C. Hölzer
   A. Katbashev, J. Kohn, J. Koopman, C. Lavigne, S. Lehtola, F. März, M. Müller,
   F. Musil, H. Neugebauer, J. Pisarek, C. Plett, P. Pracht, F. Pultar,
   J. Seibert, P. Shushkov, S. Spicher, M. Stahn, M. Steiner, T. Strunk,
   J. Stückrath, T. Rose, and J. Unsleber
   
 * started run on 2025/05/05 at 16:43:05.009     
   ID    Z sym.   atoms
    1    7 N      1, 8, 10-12, 19, 25, 28, 29, 35, 38, 39, 45, 52, 54-56, 65,
                  73, 82, 87
    2    6 C      2, 3, 5-7, 9, 13, 14, 16, 18, 20, 21, 23, 24, 26, 27, 30,
                  31, 33, 34, 36, 37, 40, 41, 43, 46, 47, 49-51, 53, 57, 58,
                  60-62, 66, 67, 69-72, 74, 75, 77-79, 83, 84, 86, 88, 89,
                  91-97
    3    8 O      4, 15, 17, 22, 32, 42, 44, 48, 59, 63, 64, 68, 76, 80, 81,
                  85, 90, 98
    4    1 H      99-226

           -------------------------------------------------
          |                Calculation Setup                |
           -------------------------------------------------

          program call               : xtb /tmp/tmpd_xbjbac/HIE/input.xyz --alpb ether --chrg 0 --input /tmp/tmpd_xbjbac/HIE/constraints.inp --gfn 2
          hostname                   : fedora
          coordinate file            : /tmp/tmpd_xbjbac/HIE/input.xyz
          omp threads                :                    32


molecular fragmentation (1/2 indicates fragments):
111111111112222222222222222222222222222222222222222222222222222222222222
222222222222222222222222222222222222222222221111111111111122222222222222
222222222222222222222222222222222222222222222222222222222222222222222222
2222222122
# atoms in fragment 1/2:    26   200
 fragment masses (1/2) :      159.21     1260.57
CMA distance (Bohr)    :  17.028
constraining FC (au)   :  0.0500
########################################################################
[WARNING] Please study the warnings concerning your input carefully
-1- readin_getIntValue: could not parse 'S'
########################################################################

           -------------------------------------------------
          |                 G F N 2 - x T B                 |
           -------------------------------------------------

        Reference                      10.1021/acs.jctc.8b01176
      * Hamiltonian:
        H0-scaling (s, p, d)           1.850000    2.230000    2.230000
        zeta-weighting                 0.500000
      * Dispersion:
        s8                             2.700000
        a1                             0.520000
        a2                             5.000000
        s9                             5.000000
      * Repulsion:
        kExp                           1.500000    1.000000
        rExp                           1.000000
      * Coulomb:
        alpha                          2.000000
        third order                    shell-resolved
        anisotropic                    true
        a3                             3.000000
        a5                             4.000000
        cn-shift                       1.200000
        cn-exp                         4.000000
        max-rad                        5.000000

      * Solvation model:               ALPB
        Solvent                        ether
        Parameter file                 internal GFN2-xTB/ALPB
        Dielectric constant                4.3300E+00
        Reference state                gsolv [1 M gas/solution]
        Free energy shift                  4.9534E-03 Eh       3.1083E+00 kcal/mol
        Temperature                        2.9815E+02 K
        Density                            7.1300E-01 kg/L
        Solvent mass                       7.4120E+01 g/mol
        Interaction kernel             P16
        Born radius scaling (c1)           1.5847E+00
        Born radii integrator          GBOBC
        Born offset                        0.0000E+00 a0       0.0000E+00 AA
        H-bond correction              true
        Ion screening                  false
        Surface tension                    1.0000E-05 Eh       1.5569E+01 dyn/cm
        Grid points                               230 per atom

          ...................................................
          :                      SETUP                      :
          :.................................................:
          :  # basis functions                 520          :
          :  # atomic orbitals                 520          :
          :  # shells                          324          :
          :  # electrons                       577          :
          :  max. iterations                   250          :
          :  Hamiltonian                  GFN2-xTB          :
          :  restarted?                      false          :
          :  GBSA solvation                   true          :
          :  PC potential                    false          :
          :  electronic temp.          300.0000000     K    :
          :  accuracy                    1.0000000          :
          :  -> integral cutoff          0.2500000E+02      :
          :  -> integral neglect         0.1000000E-07      :
          :  -> SCF convergence          0.1000000E-05 Eh   :
          :  -> wf. convergence          0.1000000E-03 e    :
          :  Broyden damping             0.4000000          :
          :  net charge                          0          :
          :  unpaired electrons                  0          :
          ...................................................

 iter      E             dE          RMSdq      gap      omega  full diag
   1   -328.4152317 -0.328415E+03  0.440E+00    0.04       0.0  T
   2   -325.7406915  0.267454E+01  0.388E+00    0.26       1.0  T
   3   -328.6901826 -0.294949E+01  0.262E+00    0.19       1.0  T
   4   -329.6018598 -0.911677E+00  0.174E+00    0.60       1.0  T
   5   -329.6567247 -0.548649E-01  0.170E+00    0.66       1.0  T
   6   -329.6966771 -0.399524E-01  0.139E+00    0.15       1.0  T
   7   -329.9744904 -0.277813E+00  0.114E+00    0.54       1.0  T
   8   -329.9135075  0.609829E-01  0.976E-01    0.63       1.0  T
   9   -330.0606081 -0.147101E+00  0.924E-01    0.41       1.0  T
  10   -330.0589289  0.167919E-02  0.835E-01    0.33       1.0  T
  11   -330.2186618 -0.159733E+00  0.598E-01    0.00       1.0  T
  12   -330.2349910 -0.163292E-01  0.539E-01    0.01       1.0  T
  13   -330.2718088 -0.368178E-01  0.461E-01    0.10       1.0  T
  14   -330.2703227  0.148608E-02  0.472E-01    0.12       1.0  T
  15   -330.1072993  0.163023E+00  0.738E-01    0.04       1.0  T
  16   -330.2676054 -0.160306E+00  0.334E-01    0.01       1.0  T
  17   -330.2975157 -0.299103E-01  0.217E-01    0.07       1.0  T
  18   -330.2870171  0.104985E-01  0.242E-01    0.10       1.0  T
  19   -330.1656328  0.121384E+00  0.554E-01    0.04       1.0  T
  20   -330.2920369 -0.126404E+00  0.227E-01    0.04       1.0  T
  21   -330.3039218 -0.118849E-01  0.129E-01    0.07       1.0  T
  22   -330.2675342  0.363876E-01  0.335E-01    0.04       1.0  T
  23   -330.3039016 -0.363674E-01  0.106E-01    0.04       1.0  T
  24   -330.2983639  0.553772E-02  0.152E-01    0.03       1.0  T
  25   -330.3060029 -0.763907E-02  0.728E-02    0.06       1.0  T
  26   -330.3067397 -0.736758E-03  0.581E-02    0.06       1.0  T
  27   -330.3073161 -0.576391E-03  0.472E-02    0.05       1.0  T
  28   -330.3079243 -0.608238E-03  0.285E-02    0.05       1.0  T
  29   -330.3080646 -0.140241E-03  0.179E-02    0.05       1.0  T
  30   -330.3080655 -0.978317E-06  0.164E-02    0.05       1.0  T
  31   -330.3081000 -0.344897E-04  0.133E-02    0.05       1.0  T
  32   -330.3081226 -0.225391E-04  0.106E-02    0.05       1.0  T
  33   -330.3081452 -0.225966E-04  0.701E-03    0.05       1.0  T
  34   -330.3081590 -0.138687E-04  0.302E-03    0.05       2.2  T
  35   -330.3081620 -0.291448E-05  0.909E-04    0.05       7.3  T
  36   -330.3081620 -0.220866E-07  0.851E-04    0.05       7.8  T
  37   -330.3081622 -0.252915E-06  0.182E-04    0.05      36.6  T

   *** convergence criteria satisfied after 37 iterations ***

         #    Occupation            Energy/Eh            Energy/eV
      -------------------------------------------------------------
         1        2.0000           -0.7407918             -20.1580
       ...           ...                  ...                  ...
       283        2.0000           -0.3783564             -10.2956
       284        2.0000           -0.3750732             -10.2063
       285        1.9718           -0.3683196             -10.0225
       286        1.9348           -0.3674948             -10.0000
       287        1.8920           -0.3669822              -9.9861
       288        1.7192           -0.3659344              -9.9576
       289        1.0803           -0.3641324              -9.9085 (HOMO)
       290        0.4019           -0.3624059              -9.8616 (LUMO)
       291                         -0.2993937              -8.1469
       292                         -0.2918907              -7.9427
       293                         -0.2762188              -7.5163
       294                         -0.2361229              -6.4252
       ...                                ...                  ...
       520                          1.0683304              29.0708
      -------------------------------------------------------------
                  HL-Gap            0.0017265 Eh            0.0470 eV
             Fermi-level           -0.3639462 Eh           -9.9035 eV

 SCC (total)                   0 d,  0 h,  0 min,  1.191 sec
 SCC setup                      ...        0 min,  0.003 sec (  0.275%)
 Dispersion                     ...        0 min,  0.009 sec (  0.785%)
 classical contributions        ...        0 min,  0.000 sec (  0.033%)
 integral evaluation            ...        0 min,  0.017 sec (  1.414%)
 iterations                     ...        0 min,  1.097 sec ( 92.139%)
 molecular gradient             ...        0 min,  0.058 sec (  4.864%)
 printout                       ...        0 min,  0.006 sec (  0.487%)

         :::::::::::::::::::::::::::::::::::::::::::::::::::::
         ::                     SUMMARY                     ::
         :::::::::::::::::::::::::::::::::::::::::::::::::::::
         :: total energy            -324.680728795356 Eh    ::
         :: total w/o Gsasa/hb      -324.594358014504 Eh    ::
         :: gradient norm              1.228733139615 Eh/a0 ::
         :: HOMO-LUMO gap              0.046979141646 eV    ::
         ::.................................................::
         :: SCC energy              -330.282683505175 Eh    ::
         :: -> isotropic ES            0.896965595932 Eh    ::
         :: -> anisotropic ES          0.060787165553 Eh    ::
         :: -> anisotropic XC          0.197663874522 Eh    ::
         :: -> dispersion             -0.269933207301 Eh    ::
         :: -> Gsolv                  -0.200531871059 Eh    ::
         ::    -> Gelec               -0.114161090208 Eh    ::
         ::    -> Gsasa               -0.072978473242 Eh    ::
         ::    -> Ghb                 -0.018345745187 Eh    ::
         ::    -> Gshift               0.004953437577 Eh    ::
         :: repulsion energy           5.601954709819 Eh    ::
         :: add. restraining           0.000000000000 Eh    ::
         :: total charge              -0.000000000001 e     ::
         :::::::::::::::::::::::::::::::::::::::::::::::::::::

           -------------------------------------------------
          |                Property Printout                |
           -------------------------------------------------

    * Orbital Energies and Occupations

         #    Occupation            Energy/Eh            Energy/eV
      -------------------------------------------------------------
         1        2.0000           -0.7407918             -20.1580
       ...           ...                  ...                  ...
       277        2.0000           -0.3862203             -10.5096
       278        2.0000           -0.3847745             -10.4702
       279        2.0000           -0.3812121             -10.3733
       280        2.0000           -0.3810846             -10.3698
       281        2.0000           -0.3791279             -10.3166
       282        2.0000           -0.3785808             -10.3017
       283        2.0000           -0.3783564             -10.2956
       284        2.0000           -0.3750732             -10.2063
       285        1.9718           -0.3683196             -10.0225
       286        1.9348           -0.3674948             -10.0000
       287        1.8920           -0.3669822              -9.9861
       288        1.7192           -0.3659344              -9.9576
       289        1.0803           -0.3641324              -9.9085 (HOMO)
       290        0.4019           -0.3624059              -9.8616 (LUMO)
       291                         -0.2993937              -8.1469
       292                         -0.2918907              -7.9427
       293                         -0.2762188              -7.5163
       294                         -0.2361229              -6.4252
       295                         -0.2280476              -6.2055
       296                         -0.2262473              -6.1565
       297                         -0.2219535              -6.0397
       298                         -0.2197186              -5.9788
       299                         -0.2183677              -5.9421
       300                         -0.2146493              -5.8409
       ...                                ...                  ...
       520                          1.0683304              29.0708
      -------------------------------------------------------------
                  HL-Gap            0.0017265 Eh            0.0470 eV
             Fermi-level           -0.3639462 Eh           -9.9035 eV

     #   Z          covCN         q      C6AA      α(0)
     1   7 N        2.636    -0.363    29.361     8.048
     2   6 C        3.785     0.033    20.043     6.377
     3   6 C        2.767     0.199    23.753     7.982
     4   8 O        0.856    -0.356    20.818     6.117
     5   6 C        3.811    -0.078    21.971     6.672
     6   6 C        3.808    -0.085    22.113     6.694
     7   6 C        3.742    -0.019    20.992     6.537
     8   7 N        2.702    -0.160    24.457     7.345
     9   6 C        2.736     0.240    22.993     7.851
    10   7 N        2.653    -0.242    26.313     7.618
    11   7 N        2.657    -0.276    27.128     7.736
    12   7 N        2.628    -0.388    30.037     8.140
    13   6 C        3.789     0.018    20.276     6.413
    14   6 C        2.759     0.272    22.410     7.752
    15   8 O        0.860    -0.516    24.132     6.586
    16   6 C        3.733     0.118    18.739     6.179
    17   8 O        1.653    -0.482    22.503     6.404
    18   6 C        3.759    -0.136    23.168     6.862
    19   7 N        2.688    -0.229    26.014     7.575
    20   6 C        3.800     0.026    20.143     6.390
    21   6 C        2.757     0.270    22.437     7.757
    22   8 O        0.859    -0.483    23.421     6.489
    23   6 C        3.811    -0.063    21.703     6.631
    24   6 C        3.081     0.055    26.688     8.469
    25   7 N        1.990    -0.210    26.350     7.613
    26   6 C        3.055     0.002    27.927     8.667
    27   6 C        2.101     0.127    27.772     8.515
    28   7 N        1.979    -0.248    27.276     7.745
    29   7 N        2.687    -0.159    24.437     7.342
    30   6 C        3.798     0.027    20.126     6.388
    31   6 C        2.751     0.279    22.284     7.730
    32   8 O        0.858    -0.493    23.625     6.517
    33   6 C        3.810    -0.079    21.993     6.675
    34   6 C        3.095     0.053    26.703     8.469
    35   7 N        1.990    -0.311    28.851     7.966
    36   6 C        3.060    -0.034    28.776     8.797
    37   6 C        2.115     0.009    30.611     8.941
    38   7 N        2.840    -0.072    22.628     7.065
    39   7 N        2.686    -0.181    24.931     7.416
    40   6 C        3.795     0.011    20.401     6.432
    41   6 C        2.760     0.277    22.315     7.736
    42   8 O        0.859    -0.495    23.677     6.524
    43   6 C        3.684     0.070    19.597     6.338
    44   8 O        1.654    -0.459    22.033     6.337
    45   7 N        2.688    -0.169    24.658     7.375
    46   6 C        3.802     0.015    20.330     6.419
    47   6 C        2.755     0.270    22.436     7.757
    48   8 O        0.859    -0.496    23.688     6.525
    49   6 C        3.808    -0.081    22.030     6.681
    50   6 C        3.804    -0.084    22.105     6.693
    51   6 C        3.741    -0.028    21.158     6.563
    52   7 N        2.697    -0.136    23.951     7.268
    53   6 C        2.736     0.238    23.023     7.856
    54   7 N        2.654    -0.267    26.915     7.705
    55   7 N        2.655    -0.263    26.826     7.692
    56   7 N        2.690    -0.178    24.852     7.404
    57   6 C        3.802     0.017    20.286     6.412
    58   6 C        2.758     0.268    22.474     7.763
    59   8 O        0.859    -0.487    23.503     6.500
    60   6 C        3.812    -0.055    21.551     6.608
    61   6 C        3.809    -0.088    22.170     6.702
    62   6 C        2.689     0.366    20.800     7.464
    63   8 O        0.856    -0.565    25.276     6.740
    64   8 O        0.857    -0.590    25.885     6.821
    65   7 N        2.689    -0.167    24.615     7.369
    66   6 C        3.799     0.020    20.232     6.404
    67   6 C        2.768     0.210    23.550     7.948
    68   8 O        0.856    -0.354    20.774     6.111
    69   6 C        3.856    -0.016    20.823     6.490
    70   6 C        3.808    -0.066    21.760     6.640
    71   6 C        3.764    -0.126    22.956     6.829
    72   6 C        3.755    -0.117    22.802     6.809
    73   7 N        2.630    -0.350    29.026     8.002
    74   6 C        3.790     0.035    19.997     6.369
    75   6 C        2.758     0.265    22.523     7.772
    76   8 O        0.859    -0.484    23.431     6.490
    77   6 C        3.812    -0.063    21.692     6.629
    78   6 C        3.807    -0.090    22.220     6.710
    79   6 C        2.689     0.364    20.831     7.469
    80   8 O        0.857    -0.602    26.179     6.860
    81   8 O        0.857    -0.612    26.414     6.891
    82   7 N        2.692    -0.170    24.670     7.377
    83   6 C        3.800     0.025    20.158     6.393
    84   6 C        2.754     0.267    22.489     7.765
    85   8 O        0.859    -0.497    23.716     6.529
    86   6 C        3.763    -0.134    23.120     6.854
    87   7 N        2.689    -0.155    24.347     7.328
    88   6 C        3.794     0.027    20.122     6.388
    89   6 C        2.768     0.170    24.331     8.078
    90   8 O        0.856    -0.352    20.744     6.106
    91   6 C        3.814    -0.074    21.908     6.662
    92   6 C        2.969    -0.006    28.157     8.704
    93   6 C        2.930    -0.048    29.196     8.861
    94   6 C        2.930    -0.043    29.067     8.842
    95   6 C        2.921    -0.075    29.861     8.961
    96   6 C        2.921    -0.058    29.445     8.899
    97   6 C        2.855     0.145    24.850     8.171
    98   8 O        1.661    -0.440    21.640     6.280
    99   1 H        0.980     0.005     2.961     2.689
   100   1 H        0.980     0.004     2.973     2.694
   101   1 H        0.980    -0.012     3.263     2.823
   102   1 H        0.980    -0.007     3.164     2.780
   103   1 H        0.980     0.008     2.918     2.669
   104   1 H        0.980     0.005     2.962     2.690
   105   1 H        0.980    -0.002     3.076     2.741
   106   1 H        0.980    -0.002     3.086     2.745
   107   1 H        0.980    -0.003     3.099     2.751
   108   1 H        0.980    -0.013     3.291     2.835
   109   1 H        0.980     0.008     2.917     2.669
   110   1 H        0.980     0.030     2.578     2.509
   111   1 H        0.980     0.007     2.937     2.678
   112   1 H        0.980     0.015     2.795     2.612
   113   1 H        0.980    -0.023     3.469     2.910
   114   1 H        0.980     0.010     2.881     2.652
   115   1 H        0.980     0.015     2.798     2.614
   116   1 H        0.980    -0.023     3.484     2.917
   117   1 H        0.860     0.165     1.303     1.788
   118   1 H        0.860     0.169     1.281     1.773
   119   1 H        0.927     0.057     2.239     2.340
   120   1 H        0.929     0.066     2.134     2.284
   121   1 H        0.927     0.061     2.189     2.313
   122   1 H        0.927     0.060     2.204     2.322
   123   1 H        0.927     0.057     2.232     2.336
   124   1 H        0.927     0.068     2.106     2.269
   125   1 H        0.927     0.077     2.013     2.219
   126   1 H        0.927     0.071     2.076     2.253
   127   1 H        0.861     0.228     0.973     1.545
   128   1 H        0.861     0.249     0.886     1.474
   129   1 H        0.861     0.219     1.012     1.576
   130   1 H        0.861     0.260     0.845     1.440
   131   1 H        0.860     0.150     1.401     1.854
   132   1 H        0.860     0.171     1.266     1.763
   133   1 H        0.926     0.031     2.572     2.508
   134   1 H        0.927     0.049     2.337     2.390
   135   1 H        0.804     0.327     0.646     1.262
   136   1 H        0.927     0.061     2.188     2.313
   137   1 H        0.927     0.047     2.363     2.404
   138   1 H        0.927     0.062     2.178     2.308
   139   1 H        0.861     0.235     0.945     1.522
   140   1 H        0.926     0.077     2.010     2.217
   141   1 H        0.927     0.074     2.043     2.235
   142   1 H        0.927     0.075     2.031     2.228
   143   1 H        0.929     0.055     2.254     2.348
   144   1 H        0.861     0.200     1.108     1.649
   145   1 H        0.927     0.089     1.885     2.147
   146   1 H        0.926     0.065     2.140     2.287
   147   1 H        0.927     0.087     1.907     2.159
   148   1 H        0.929     0.039     2.465     2.455
   149   1 H        0.861     0.232     0.956     1.532
   150   1 H        0.927     0.093     1.854     2.129
   151   1 H        0.927     0.049     2.329     2.386
   152   1 H        0.927     0.079     1.991     2.207
   153   1 H        0.804     0.316     0.674     1.290
   154   1 H        0.861     0.219     1.015     1.578
   155   1 H        0.926     0.093     1.848     2.126
   156   1 H        0.927     0.073     2.051     2.240
   157   1 H        0.926     0.072     2.068     2.249
   158   1 H        0.927     0.068     2.103     2.268
   159   1 H        0.927     0.071     2.071     2.250
   160   1 H        0.927     0.091     1.864     2.135
   161   1 H        0.927     0.085     1.927     2.171
   162   1 H        0.861     0.238     0.929     1.510
   163   1 H        0.861     0.245     0.901     1.487
   164   1 H        0.861     0.248     0.892     1.479
   165   1 H        0.861     0.240     0.924     1.505
   166   1 H        0.861     0.218     1.020     1.582
   167   1 H        0.926     0.091     1.872     2.140
   168   1 H        0.927     0.054     2.269     2.355
   169   1 H        0.927     0.052     2.291     2.367
   170   1 H        0.927     0.050     2.316     2.380
   171   1 H        0.927     0.053     2.281     2.362
   172   1 H        0.861     0.227     0.979     1.550
   173   1 H        0.927     0.084     1.936     2.176
   174   1 H        0.929     0.067     2.115     2.274
   175   1 H        0.927     0.053     2.280     2.361
   176   1 H        0.927     0.036     2.499     2.472
   177   1 H        0.927     0.048     2.344     2.394
   178   1 H        0.926     0.050     2.321     2.383
   179   1 H        0.927     0.039     2.463     2.454
   180   1 H        0.927     0.066     2.131     2.283
   181   1 H        0.926     0.039     2.456     2.451
   182   1 H        0.927     0.045     2.384     2.415
   183   1 H        0.927     0.050     2.321     2.382
   184   1 H        0.860     0.162     1.323     1.802
   185   1 H        0.860     0.163     1.318     1.798
   186   1 H        0.927     0.023     2.681     2.561
   187   1 H        0.926     0.054     2.265     2.353
   188   1 H        0.927     0.046     2.365     2.405
   189   1 H        0.927     0.044     2.402     2.424
   190   1 H        0.927     0.050     2.325     2.385
   191   1 H        0.861     0.206     1.076     1.625
   192   1 H        0.927     0.082     1.962     2.190
   193   1 H        0.927     0.067     2.120     2.277
   194   1 H        0.927     0.074     2.037     2.232
   195   1 H        0.927     0.067     2.118     2.276
   196   1 H        0.861     0.216     1.027     1.588
   197   1 H        0.927     0.087     1.907     2.160
   198   1 H        0.929     0.113     1.672     2.022
   199   1 H        0.927     0.068     2.105     2.269
   200   1 H        0.927     0.076     2.025     2.225
   201   1 H        0.929     0.050     2.316     2.380
   202   1 H        0.929     0.056     2.249     2.345
   203   1 H        0.929     0.039     2.466     2.456
   204   1 H        0.929     0.068     2.108     2.270
   205   1 H        0.807     0.336     0.623     1.240
   206   1 H        0.980    -0.001     3.073     2.739
   207   1 H        0.980    -0.006     3.160     2.778
   208   1 H        0.980     0.010     2.874     2.649
   209   1 H        0.980     0.009     2.900     2.661
   210   1 H        0.980    -0.009     3.209     2.799
   211   1 H        0.980    -0.005     3.136     2.767
   212   1 H        0.980     0.001     3.036     2.723
   213   1 H        0.980     0.004     2.978     2.697
   214   1 H        0.980     0.003     3.004     2.708
   215   1 H        0.980     0.012     2.844     2.635
   216   1 H        0.980    -0.008     3.189     2.791
   217   1 H        0.980     0.061     2.177     2.306
   218   1 H        0.980    -0.006     3.150     2.773
   219   1 H        0.980    -0.010     3.232     2.809
   220   1 H        0.980     0.022     2.702     2.568
   221   1 H        0.980    -0.009     3.218     2.803
   222   1 H        0.980    -0.014     3.304     2.840
   223   1 H        0.980     0.023     2.678     2.557
   224   1 H        0.860     0.219     1.013     1.577
   225   1 H        0.860     0.226     0.983     1.553
   226   1 H        0.858     0.188     1.168     1.693

 Mol. C6AA /au·bohr⁶  :     435232.094026
 Mol. C8AA /au·bohr⁸  :    9291337.763695
 Mol. α(0) /au        :        995.761074


Wiberg/Mayer (AO) data.
largest (>0.10) Wiberg bond orders for each atom

 ---------------------------------------------------------------------------
     #   Z sym  total        # sym  WBO       # sym  WBO       # sym  WBO
 ---------------------------------------------------------------------------
     1   7 N    3.001 --     2 C    1.016   118 H    0.955   117 H    0.955
     2   6 C    3.987 --     1 N    1.016     3 C    0.977   119 H    0.963
                             5 C    0.957
     3   6 C    3.896 --     4 O    1.913     2 C    0.977   120 H    0.951
     4   8 O    2.050 --     3 C    1.913
     5   6 C    3.993 --     6 C    1.005   121 H    0.975   122 H    0.970
                             2 C    0.957
     6   6 C    3.993 --     5 C    1.005     7 C    1.005   123 H    0.977
                           124 H    0.973
     7   6 C    3.958 --     6 C    1.005     8 N    0.980   126 H    0.964
                           125 H    0.964
     8   7 N    3.436 --     9 C    1.289     7 C    0.980   224 H    0.919
     9   6 C    3.976 --    10 N    1.334    11 N    1.325     8 N    1.289
    10   7 N    3.413 --     9 C    1.334   127 H    0.926   128 H    0.891
                            11 N    0.107
    11   7 N    3.382 --     9 C    1.325   129 H    0.931   130 H    0.841
                            10 N    0.107
    12   7 N    2.977 --    13 C    1.010   131 H    0.961   132 H    0.947
    13   6 C    3.985 --    12 N    1.010    16 C    0.962   133 H    0.954
                            14 C    0.941
    14   6 C    3.949 --    15 O    1.612    19 N    1.322    13 C    0.941
    15   8 O    1.925 --    14 C    1.612    19 N    0.196
    16   6 C    3.958 --    18 C    1.003    17 O    0.987   134 H    0.965
                            13 C    0.962
    17   8 O    1.935 --    16 C    0.987   135 H    0.876
    18   6 C    3.993 --    16 C    1.003   137 H    0.984   138 H    0.982
                           136 H    0.976
    19   7 N    3.450 --    14 C    1.322    20 C    0.979   139 H    0.803
                            15 O    0.196
    20   6 C    3.969 --    19 N    0.979    23 C    0.960   140 H    0.957
                            21 C    0.937
    21   6 C    3.949 --    22 O    1.639    29 N    1.299    20 C    0.937
    22   8 O    1.947 --    21 C    1.639    29 N    0.198
    23   6 C    3.990 --    24 C    1.017    20 C    0.960   141 H    0.955
                           142 H    0.950
    24   6 C    3.893 --    26 C    1.513    25 N    1.179    23 C    1.017
                            27 C    0.114
    25   7 N    3.051 --    27 C    1.659    24 C    1.179    28 N    0.109
    26   6 C    3.897 --    24 C    1.513    28 N    1.217   143 H    0.970
                            27 C    0.109
    27   6 C    3.458 --    25 N    1.659    28 N    1.525    24 C    0.114
                            26 C    0.109
    28   7 N    2.922 --    27 C    1.525    26 C    1.217    25 N    0.109
    29   7 N    3.477 --    21 C    1.299    30 C    0.983   144 H    0.928
                            22 O    0.198
    30   6 C    3.965 --    29 N    0.983    33 C    0.968    31 C    0.939
                           145 H    0.935
    31   6 C    3.947 --    32 O    1.600    39 N    1.316    30 C    0.939
    32   8 O    1.963 --    31 C    1.600    39 N    0.188
    33   6 C    3.985 --    34 C    1.016    30 C    0.968   146 H    0.962
                           147 H    0.946
    34   6 C    3.921 --    36 C    1.565    35 N    1.206    33 C    1.016
    35   7 N    3.000 --    37 C    1.590    34 C    1.206
    36   6 C    3.909 --    34 C    1.565    38 N    1.172   148 H    0.971
                            37 C    0.114
    37   6 C    3.138 --    35 N    1.590    38 N    1.315    36 C    0.114
    38   7 N    3.566 --    37 C    1.315    36 C    1.172   226 H    0.930
    39   7 N    3.467 --    31 C    1.316    40 C    0.974   149 H    0.890
                            32 O    0.188
    40   6 C    3.963 --    39 N    0.974    43 C    0.971   150 H    0.941
                            41 C    0.939
    41   6 C    3.954 --    42 O    1.628    45 N    1.311    40 C    0.939
    42   8 O    1.945 --    41 C    1.628    45 N    0.199
    43   6 C    3.956 --    44 O    1.004    40 C    0.971   152 H    0.968
                           151 H    0.967
    44   8 O    1.947 --    43 C    1.004   153 H    0.883
    45   7 N    3.481 --    41 C    1.311    46 C    0.976   154 H    0.907
                            42 O    0.199
    46   6 C    3.960 --    49 C    0.980    45 N    0.976   155 H    0.941
                            47 C    0.938
    47   6 C    3.950 --    48 O    1.621    56 N    1.314    46 C    0.938
    48   8 O    1.938 --    47 C    1.621    56 N    0.195
    49   6 C    3.977 --    50 C    1.006    46 C    0.980   156 H    0.971
                           157 H    0.958
    50   6 C    3.989 --    49 C    1.006    51 C    0.995   158 H    0.975
                           159 H    0.970
    51   6 C    3.954 --    50 C    0.995    52 N    0.981   160 H    0.965
                           161 H    0.952
    52   7 N    3.479 --    53 C    1.324    51 C    0.981   225 H    0.911
                            55 N    0.107
    53   6 C    3.977 --    55 N    1.327    52 N    1.324    54 N    1.296
    54   7 N    3.370 --    53 C    1.296   163 H    0.921   162 H    0.905
    55   7 N    3.395 --    53 C    1.327   165 H    0.923   164 H    0.878
                            52 N    0.107
    56   7 N    3.476 --    47 C    1.314    57 C    0.978   166 H    0.893
                            48 O    0.195
    57   6 C    3.955 --    56 N    0.978    60 C    0.969   167 H    0.952
                            58 C    0.937
    58   6 C    3.949 --    59 O    1.627    65 N    1.310    57 C    0.937
    59   8 O    1.940 --    58 C    1.627    65 N    0.199
    60   6 C    3.988 --    61 C    1.006   168 H    0.974   169 H    0.972
                            57 C    0.969
    61   6 C    3.956 --    60 C    1.006   171 H    0.962   170 H    0.958
                            62 C    0.930
    62   6 C    3.927 --    63 O    1.504    64 O    1.457    61 C    0.930
    63   8 O    1.850 --    62 C    1.504    64 O    0.204
    64   8 O    1.831 --    62 C    1.457    63 O    0.204
    65   7 N    3.480 --    58 C    1.310    66 C    0.978   172 H    0.898
                            59 O    0.199
    66   6 C    3.963 --    67 C    0.982    65 N    0.978   173 H    0.956
                            69 C    0.931
    67   6 C    3.902 --    68 O    1.901    66 C    0.982   174 H    0.947
    68   8 O    2.051 --    67 C    1.901
    69   6 C    3.987 --    71 C    1.011    70 C    0.995   175 H    0.966
                            66 C    0.931
    70   6 C    3.995 --    72 C    1.013    69 C    0.995   176 H    0.979
                           177 H    0.978
    71   6 C    3.993 --    69 C    1.011   178 H    0.985   179 H    0.977
                           180 H    0.972
    72   6 C    3.994 --    70 C    1.013   182 H    0.986   183 H    0.981
                           181 H    0.977
    73   7 N    2.977 --    74 C    1.015   184 H    0.959   185 H    0.941
    74   6 C    3.983 --    73 N    1.015    77 C    0.978   186 H    0.950
                            75 C    0.950
    75   6 C    3.947 --    76 O    1.642    82 N    1.288    74 C    0.950
    76   8 O    1.946 --    75 C    1.642    82 N    0.191
    77   6 C    3.990 --    78 C    1.003    74 C    0.978   188 H    0.977
                           187 H    0.966
    78   6 C    3.955 --    77 C    1.003   189 H    0.968   190 H    0.944
                            79 C    0.928
    79   6 C    3.929 --    80 O    1.509    81 O    1.462    78 C    0.928
    80   8 O    1.806 --    79 C    1.509    81 O    0.209
    81   8 O    1.790 --    79 C    1.462    80 O    0.209
    82   7 N    3.461 --    75 C    1.288    83 C    0.980   191 H    0.927
                            76 O    0.191
    83   6 C    3.967 --    86 C    0.991    82 N    0.980   192 H    0.953
                            84 C    0.935
    84   6 C    3.948 --    85 O    1.608    87 N    1.318    83 C    0.935
    85   8 O    1.944 --    84 C    1.608    87 N    0.194
    86   6 C    3.985 --    83 C    0.991   193 H    0.983   195 H    0.981
                           194 H    0.980
    87   7 N    3.489 --    84 C    1.318    88 C    0.970   196 H    0.924
                            85 O    0.194
    88   6 C    3.963 --    89 C    0.983    87 N    0.970   197 H    0.953
                            91 C    0.939
    89   6 C    3.889 --    90 O    1.903    88 C    0.983   198 H    0.854
    90   8 O    2.051 --    89 C    1.903
    91   6 C    3.986 --    92 C    1.008   199 H    0.969   200 H    0.967
                            88 C    0.939
    92   6 C    3.986 --    93 C    1.406    94 C    1.400    91 C    1.008
    93   6 C    3.991 --    95 C    1.450    92 C    1.406   201 H    0.970
                            96 C    0.106
    94   6 C    3.992 --    96 C    1.463    92 C    1.400   202 H    0.970
                            95 C    0.103
    95   6 C    3.989 --    93 C    1.450    97 C    1.375   203 H    0.969
                            94 C    0.103
    96   6 C    3.989 --    94 C    1.463    97 C    1.367   204 H    0.968
                            93 C    0.106
    97   6 C    3.934 --    95 C    1.375    96 C    1.367    98 O    1.057
    98   8 O    2.079 --    97 C    1.057   205 H    0.868
    99   1 H    1.000 --   206 H    0.981
   100   1 H    1.000 --   207 H    0.977
   101   1 H    1.000 --   208 H    0.992
   102   1 H    1.000 --   209 H    0.974
   103   1 H    1.000 --   210 H    0.983
   104   1 H    1.000 --   211 H    0.989
   105   1 H    1.000 --   212 H    0.984
   106   1 H    1.000 --   213 H    0.987
   107   1 H    1.000 --   214 H    0.996
   108   1 H    1.000 --   215 H    0.975
   109   1 H    1.000 --   216 H    0.968
   110   1 H    0.999 --   217 H    0.888
   111   1 H    1.000 --   218 H    0.919
   112   1 H    0.999 --   219 H    0.975
   113   1 H    0.999 --   220 H    0.944
   114   1 H    1.000 --   221 H    0.945
   115   1 H    1.000 --   222 H    0.927
   116   1 H    0.999 --   223 H    0.929
   117   1 H    0.973 --     1 N    0.955
   118   1 H    0.972 --     1 N    0.955
   119   1 H    0.997 --     2 C    0.963
   120   1 H    0.996 --     3 C    0.951
   121   1 H    0.996 --     5 C    0.975
   122   1 H    0.996 --     5 C    0.970
   123   1 H    0.997 --     6 C    0.977
   124   1 H    0.995 --     6 C    0.973
   125   1 H    0.994 --     7 C    0.964
   126   1 H    0.995 --     7 C    0.964
   127   1 H    0.948 --    10 N    0.926
   128   1 H    0.938 --    10 N    0.891
   129   1 H    0.952 --    11 N    0.931
   130   1 H    0.932 --    11 N    0.841
   131   1 H    0.977 --    12 N    0.961
   132   1 H    0.971 --    12 N    0.947
   133   1 H    0.999 --    13 C    0.954
   134   1 H    0.998 --    16 C    0.965
   135   1 H    0.893 --    17 O    0.876
   136   1 H    0.996 --    18 C    0.976
   137   1 H    0.998 --    18 C    0.984
   138   1 H    0.996 --    18 C    0.982
   139   1 H    0.945 --    19 N    0.803
   140   1 H    0.994 --    20 C    0.957
   141   1 H    0.993 --    23 C    0.955
   142   1 H    0.991 --    23 C    0.950
   143   1 H    0.997 --    26 C    0.970
   144   1 H    0.960 --    29 N    0.928
   145   1 H    0.991 --    30 C    0.935
   146   1 H    0.991 --    33 C    0.962
   147   1 H    0.991 --    33 C    0.946
   148   1 H    0.998 --    36 C    0.971
   149   1 H    0.946 --    39 N    0.890
   150   1 H    0.991 --    40 C    0.941
   151   1 H    0.997 --    43 C    0.967
   152   1 H    0.993 --    43 C    0.968
   153   1 H    0.900 --    44 O    0.883
   154   1 H    0.952 --    45 N    0.907
   155   1 H    0.990 --    46 C    0.941
   156   1 H    0.994 --    49 C    0.971
   157   1 H    0.994 --    49 C    0.958
   158   1 H    0.995 --    50 C    0.975
   159   1 H    0.993 --    50 C    0.970
   160   1 H    0.991 --    51 C    0.965
   161   1 H    0.993 --    51 C    0.952
   162   1 H    0.943 --    54 N    0.905
   163   1 H    0.940 --    54 N    0.921
   164   1 H    0.939 --    55 N    0.878
   165   1 H    0.942 --    55 N    0.923
   166   1 H    0.953 --    56 N    0.893
   167   1 H    0.991 --    57 C    0.952
   168   1 H    0.996 --    60 C    0.974
   169   1 H    0.997 --    60 C    0.972
   170   1 H    0.996 --    61 C    0.958
   171   1 H    0.996 --    61 C    0.962
   172   1 H    0.949 --    65 N    0.898
   173   1 H    0.993 --    66 C    0.956
   174   1 H    0.995 --    67 C    0.947
   175   1 H    0.997 --    69 C    0.966
   176   1 H    0.999 --    70 C    0.979
   177   1 H    0.998 --    70 C    0.978
   178   1 H    0.997 --    71 C    0.985
   179   1 H    0.998 --    71 C    0.977
   180   1 H    0.995 --    71 C    0.972
   181   1 H    0.998 --    72 C    0.977
   182   1 H    0.997 --    72 C    0.986
   183   1 H    0.997 --    72 C    0.981
   184   1 H    0.973 --    73 N    0.959
   185   1 H    0.972 --    73 N    0.941
   186   1 H    0.991 --    74 C    0.950
   187   1 H    0.996 --    77 C    0.966
   188   1 H    0.995 --    77 C    0.977
   189   1 H    0.997 --    78 C    0.968
   190   1 H    0.997 --    78 C    0.944
   191   1 H    0.958 --    82 N    0.927
   192   1 H    0.993 --    83 C    0.953
   193   1 H    0.996 --    86 C    0.983
   194   1 H    0.994 --    86 C    0.980
   195   1 H    0.995 --    86 C    0.981
   196   1 H    0.953 --    87 N    0.924
   197   1 H    0.992 --    88 C    0.953
   198   1 H    0.987 --    89 C    0.854
   199   1 H    0.994 --    91 C    0.969
   200   1 H    0.994 --    91 C    0.967
   201   1 H    0.997 --    93 C    0.970
   202   1 H    0.997 --    94 C    0.970
   203   1 H    0.998 --    95 C    0.969
   204   1 H    0.995 --    96 C    0.968
   205   1 H    0.887 --    98 O    0.868
   206   1 H    1.000 --    99 H    0.981
   207   1 H    1.000 --   100 H    0.977
   208   1 H    1.000 --   101 H    0.992
   209   1 H    1.000 --   102 H    0.974
   210   1 H    1.000 --   103 H    0.983
   211   1 H    1.000 --   104 H    0.989
   212   1 H    1.000 --   105 H    0.984
   213   1 H    1.000 --   106 H    0.987
   214   1 H    1.000 --   107 H    0.996
   215   1 H    1.000 --   108 H    0.975
   216   1 H    1.000 --   109 H    0.968
   217   1 H    0.996 --   110 H    0.888
   218   1 H    1.000 --   111 H    0.919
   219   1 H    1.000 --   112 H    0.975
   220   1 H    1.000 --   113 H    0.944
   221   1 H    1.000 --   114 H    0.945
   222   1 H    1.000 --   115 H    0.927
   223   1 H    0.999 --   116 H    0.929
   224   1 H    0.952 --     8 N    0.919
   225   1 H    0.949 --    52 N    0.911
   226   1 H    0.964 --    38 N    0.930
 ---------------------------------------------------------------------------

Topologies differ in total number of bonds
Writing topology from bond orders to xtbtopo.mol

molecular dipole:
                 x           y           z       tot (Debye)
 q only:       -0.348       4.458      -0.798
   full:       -1.014       5.638      -1.284      14.922
molecular quadrupole (traceless):
                xx          xy          yy          xz          yz          zz
 q only:       70.848     767.931       4.179    -292.464     985.944     -75.027
  q+dip:       35.843     945.891     117.210    -511.483    1228.099    -153.053
   full:       27.512     946.087     119.739    -511.966    1227.798    -147.252


           -------------------------------------------------
          | TOTAL ENERGY             -324.680728795356 Eh   |
          | GRADIENT NORM               1.228733139615 Eh/α |
          | HOMO-LUMO GAP               0.046979141646 eV   |
           -------------------------------------------------
########################################################################
[WARNING] Runtime exception occurred
-2- restart_readRestart: Dimension missmatch in restart file.
-1- restart_readRestart: Number of electron missmatch in restart file.
########################################################################

------------------------------------------------------------------------
 * finished run on 2025/05/05 at 16:43:06.223     
------------------------------------------------------------------------
 total:
 * wall-time:     0 d,  0 h,  0 min,  1.214 sec
 *  cpu-time:     0 d,  0 h,  0 min, 37.996 sec
 * ratio c/w:    31.310 speedup
 SCF:
 * wall-time:     0 d,  0 h,  0 min,  1.193 sec
 *  cpu-time:     0 d,  0 h,  0 min, 37.440 sec
 * ratio c/w:    31.382 speedup

