      -----------------------------------------------------------      
     |                   =====================                   |     
     |                           x T B                           |     
     |                   =====================                   |     
     |                         S. Grimme                         |     
     |          Mulliken Center for Theoretical Chemistry        |     
     |                    University of Bonn                     |     
      -----------------------------------------------------------      

   * xtb version 6.7.1 (edcfbbe) compiled by 'conda@afd1a870197c' on 2025-04-11

   xtb is free software: you can redistribute it and/or modify it under
   the terms of the GNU Lesser General Public License as published by
   the Free Software Foundation, either version 3 of the License, or
   (at your option) any later version.
   
   xtb is distributed in the hope that it will be useful,
   but WITHOUT ANY WARRANTY; without even the implied warranty of
   MERCHANTABILITY or FITNESS FOR A PARTICULAR PURPOSE.  See the
   GNU Lesser General Public License for more details.
   
   Cite this work as:
   * C. Bannwarth, E. Caldeweyher, S. Ehlert, A. Hansen, P. Pracht,
     J. Seibert, S. Spicher, S. Grimme, WIREs Comput. Mol. Sci., 2020, 11,
     e01493. DOI: 10.1002/wcms.1493
   
   for GFN2-xTB:
   * C. Bannwarth, S. Ehlert and S. Grimme., J. Chem. Theory Comput., 2019,
     15, 1652-1671. DOI: 10.1021/acs.jctc.8b01176
   for GFN1-xTB:
   * S. Grimme, C. Bannwarth, P. Shushkov, J. Chem. Theory Comput., 2017,
     13, 1989-2009. DOI: 10.1021/acs.jctc.7b00118
   for GFN0-xTB:
   * P. Pracht, E. Caldeweyher, S. Ehlert, S. Grimme, ChemRxiv, 2019, preprint.
     DOI: 10.26434/chemrxiv.8326202.v1
   for GFN-FF:
   * S. Spicher and S. Grimme, Angew. Chem. Int. Ed., 2020, 59, 15665-15673.
     DOI: 10.1002/anie.202004239
   
   for ALPB and GBSA implicit solvation:
   * S. Ehlert, M. Stahn, S. Spicher, S. Grimme, J. Chem. Theory Comput.,
     2021, 17, 4250-4261. DOI: 10.1021/acs.jctc.1c00471
   
   for ddCOSMO and CPCM-X implicit solvation:
   * M. Stahn, S. Ehlert, S. Grimme, J. Phys. Chem. A,
     2023, XX, XXXX-XXXX. DOI: 10.1021/acs.jpca.3c04382
   
   for DFT-D4:
   * E. Caldeweyher, C. Bannwarth and S. Grimme, J. Chem. Phys., 2017,
     147, 034112. DOI: 10.1063/1.4993215
   * E. Caldeweyher, S. Ehlert, A. Hansen, H. Neugebauer, S. Spicher,
     C. Bannwarth and S. Grimme, J. Chem. Phys., 2019, 150, 154122.
     DOI: 10.1063/1.5090222
   * E. Caldeweyher, J.-M. Mewes, S. Ehlert and S. Grimme, Phys. Chem. Chem. Phys.
     2020, 22, 8499-8512. DOI: 10.1039/D0CP00502A
   
   for sTDA-xTB:
   * S. Grimme and C. Bannwarth, J. Chem. Phys., 2016, 145, 054103.
     DOI: 10.1063/1.4959605
   
   in the mass-spec context:
   * V. Asgeirsson, C. Bauer and S. Grimme, Chem. Sci., 2017, 8, 4879.
     DOI: 10.1039/c7sc00601b
   * J. Koopman and S. Grimme, ACS Omega 2019, 4, 12, 15120-15133.
     DOI: 10.1021/acsomega.9b02011
   
   for metadynamics refer to:
   * S. Grimme, J. Chem. Theory Comput., 2019, 155, 2847-2862
     DOI: 10.1021/acs.jctc.9b00143
   
   for SPH calculations refer to:
   * S. Spicher and S. Grimme, J. Chem. Theory Comput., 2021, 17, 1701-1714
     DOI: 10.1021/acs.jctc.0c01306
   
   for ONIOM refer to:
   * C. Plett, A. Katbashev, S. Ehlert, S. Grimme, M. Bursch,
     Phys. Chem. Chem. Phys., 2023, 25, 17860-17868. DOI: 10.1039/D3CP02178E
   
   for DIPRO refer to:
   * J. Kohn, N. Gildemeister, S. Grimme, D. Fazzi, A. Hansen,
     J. Chem. Phys., 2023, just accepted.
   
   for PTB refer to:
   * S. Grimme, M. Mueller, A. Hansen, J. Chem. Phys., 2023, 158, 124111.
     DOI: 10.1063/5.0137838
   
   with help from (in alphabetical order)
   P. Atkinson, C. Bannwarth, F. Bohle, G. Brandenburg, E. Caldeweyher
   M. Checinski, S. Dohm, S. Ehlert, S. Ehrlich, I. Gerasimov, C. Hölzer
   A. Katbashev, J. Kohn, J. Koopman, C. Lavigne, S. Lehtola, F. März, M. Müller,
   F. Musil, H. Neugebauer, J. Pisarek, C. Plett, P. Pracht, F. Pultar,
   J. Seibert, P. Shushkov, S. Spicher, M. Stahn, M. Steiner, T. Strunk,
   J. Stückrath, T. Rose, and J. Unsleber
   
 * started run on 2025/05/05 at 17:12:54.565     
   ID    Z sym.   atoms
    1    7 N      1, 6, 15, 23, 29, 32, 33, 41, 47, 50, 51
    2    6 C      2, 3, 5, 7, 8, 10-12, 16, 17, 19-22, 24, 25, 27, 28, 30,
                  31, 34, 35, 37-40, 42, 43, 45, 46, 48, 49, 52, 53, 55
    3    8 O      4, 9, 13, 14, 18, 26, 36, 44, 54, 56
    4    1 H      57-131

           -------------------------------------------------
          |                Calculation Setup                |
           -------------------------------------------------

          program call               : xtb /tmp/tmpextcq91v/HID/input.xyz --alpb ether --chrg 0 --input /tmp/tmpextcq91v/HID/constraints.inp --gfn 2
          hostname                   : fedora
          coordinate file            : /tmp/tmpextcq91v/HID/input.xyz
          omp threads                :                    32


molecular fragmentation (1/2 indicates fragments):
111111111111111111111111111111111111111111111111111111112222222222221111
11111111111111111111111111111111111111111111112222222222221
# atoms in fragment 1/2:   107    24
 fragment masses (1/2) :      785.85       24.19
CMA distance (Bohr)    :  19.638
constraining FC (au)   :  0.0500
########################################################################
[WARNING] Please study the warnings concerning your input carefully
-1- readin_getIntValue: could not parse 'S'
########################################################################

           -------------------------------------------------
          |                 G F N 2 - x T B                 |
           -------------------------------------------------

        Reference                      10.1021/acs.jctc.8b01176
      * Hamiltonian:
        H0-scaling (s, p, d)           1.850000    2.230000    2.230000
        zeta-weighting                 0.500000
      * Dispersion:
        s8                             2.700000
        a1                             0.520000
        a2                             5.000000
        s9                             5.000000
      * Repulsion:
        kExp                           1.500000    1.000000
        rExp                           1.000000
      * Coulomb:
        alpha                          2.000000
        third order                    shell-resolved
        anisotropic                    true
        a3                             3.000000
        a5                             4.000000
        cn-shift                       1.200000
        cn-exp                         4.000000
        max-rad                        5.000000

      * Solvation model:               ALPB
        Solvent                        ether
        Parameter file                 internal GFN2-xTB/ALPB
        Dielectric constant                4.3300E+00
        Reference state                gsolv [1 M gas/solution]
        Free energy shift                  4.9534E-03 Eh       3.1083E+00 kcal/mol
        Temperature                        2.9815E+02 K
        Density                            7.1300E-01 kg/L
        Solvent mass                       7.4120E+01 g/mol
        Interaction kernel             P16
        Born radius scaling (c1)           1.5847E+00
        Born radii integrator          GBOBC
        Born offset                        0.0000E+00 a0       0.0000E+00 AA
        H-bond correction              true
        Ion screening                  false
        Surface tension                    1.0000E-05 Eh       1.5569E+01 dyn/cm
        Grid points                               230 per atom

          ...................................................
          :                      SETUP                      :
          :.................................................:
          :  # basis functions                 299          :
          :  # atomic orbitals                 299          :
          :  # shells                          187          :
          :  # electrons                       330          :
          :  max. iterations                   250          :
          :  Hamiltonian                  GFN2-xTB          :
          :  restarted?                      false          :
          :  GBSA solvation                   true          :
          :  PC potential                    false          :
          :  electronic temp.          300.0000000     K    :
          :  accuracy                    1.0000000          :
          :  -> integral cutoff          0.2500000E+02      :
          :  -> integral neglect         0.1000000E-07      :
          :  -> SCF convergence          0.1000000E-05 Eh   :
          :  -> wf. convergence          0.1000000E-03 e    :
          :  Broyden damping             0.4000000          :
          :  net charge                          0          :
          :  unpaired electrons                  0          :
          ...................................................

 iter      E             dE          RMSdq      gap      omega  full diag
   1   -186.1962011 -0.186196E+03  0.457E+00    0.04       0.0  T
   2   -185.2299059  0.966295E+00  0.411E+00    0.08       1.0  T
   3   -187.1674454 -0.193754E+01  0.279E+00    0.46       1.0  T
   4   -187.2017940 -0.343486E-01  0.238E+00    0.17       1.0  T
   5   -187.0737510  0.128043E+00  0.237E+00    0.23       1.0  T
   6   -186.9634640  0.110287E+00  0.200E+00    0.11       1.0  T
   7   -187.6123515 -0.648887E+00  0.159E+00    0.10       1.0  T
   8   -187.4206635  0.191688E+00  0.163E+00    0.27       1.0  T
   9   -187.2513524  0.169311E+00  0.195E+00    0.08       1.0  T
  10   -187.9862637 -0.734911E+00  0.935E-01    0.06       1.0  T
  11   -188.0230272 -0.367636E-01  0.794E-01    0.07       1.0  T
  12   -187.7773054  0.245722E+00  0.125E+00    0.06       1.0  T
  13   -187.9508804 -0.173575E+00  0.107E+00    0.27       1.0  T
  14   -188.0373882 -0.865078E-01  0.699E-01    0.01       1.0  T
  15   -187.9822287  0.551595E-01  0.894E-01    0.24       1.0  T
  16   -187.0669175  0.915311E+00  0.223E+00    0.19       1.0  T
  17   -187.8310809 -0.764163E+00  0.102E+00    0.01       1.0  T
  18   -188.0531181 -0.222037E+00  0.544E-01    0.10       1.0  T
  19   -188.0459049  0.721326E-02  0.461E-01    0.04       1.0  T
  20   -188.0985763 -0.526714E-01  0.252E-01    0.05       1.0  T
  21   -188.0662278  0.323485E-01  0.455E-01    0.11       1.0  T
  22   -188.1004747 -0.342469E-01  0.205E-01    0.05       1.0  T
  23   -188.0911051  0.936962E-02  0.287E-01    0.08       1.0  T
  24   -188.0927038 -0.159875E-02  0.261E-01    0.08       1.0  T
  25   -188.1030911 -0.103873E-01  0.108E-01    0.05       1.0  T
  26   -188.1047085 -0.161738E-02  0.506E-02    0.04       1.0  T
  27   -188.1036266  0.108188E-02  0.841E-02    0.06       1.0  T
  28   -188.1049458 -0.131921E-02  0.325E-02    0.05       1.0  T
  29   -188.1048005  0.145323E-03  0.428E-02    0.05       1.0  T
  30   -188.1048521 -0.515961E-04  0.386E-02    0.05       1.0  T
  31   -188.1050967 -0.244597E-03  0.241E-02    0.05       1.0  T
  32   -188.1051331 -0.363739E-04  0.193E-02    0.05       1.0  T
  33   -188.1051530 -0.199462E-04  0.144E-02    0.05       1.0  T
  34   -188.1051767 -0.236981E-04  0.903E-03    0.05       1.0  T
  35   -188.1051834 -0.668707E-05  0.621E-03    0.05       1.4  T
  36   -188.1051886 -0.522096E-05  0.339E-03    0.05       2.6  T
  37   -188.1051899 -0.127450E-05  0.249E-03    0.05       3.5  T
  38   -188.1051902 -0.333943E-06  0.205E-03    0.05       4.3  T
  39   -188.1051906 -0.354055E-06  0.149E-03    0.05       5.9  T
  40   -188.1051909 -0.284998E-06  0.813E-04    0.05      10.7  T
  41   -188.1051910 -0.107381E-06  0.202E-04    0.05      43.2  T

   *** convergence criteria satisfied after 41 iterations ***

         #    Occupation            Energy/Eh            Energy/eV
      -------------------------------------------------------------
         1        2.0000           -0.7445793             -20.2610
       ...           ...                  ...                  ...
       159        2.0000           -0.4087413             -11.1224
       160        1.9993           -0.4060394             -11.0489
       161        1.9808           -0.4029163             -10.9639
       162        1.9664           -0.4023798             -10.9493
       163        1.9264           -0.4016149             -10.9285
       164        1.8323           -0.4007843             -10.9059
       165        1.4789           -0.3995036             -10.8710 (HOMO)
       166        0.6240           -0.3977613             -10.8236 (LUMO)
       167        0.1919           -0.3963818             -10.7861
       168                         -0.3036271              -8.2621
       169                         -0.2544783              -6.9247
       170                         -0.2460266              -6.6947
       ...                                ...                  ...
       299                          0.8867553              24.1298
      -------------------------------------------------------------
                  HL-Gap            0.0017423 Eh            0.0474 eV
             Fermi-level           -0.3985126 Eh          -10.8441 eV

 SCC (total)                   0 d,  0 h,  0 min,  0.705 sec
 SCC setup                      ...        0 min,  0.001 sec (  0.175%)
 Dispersion                     ...        0 min,  0.003 sec (  0.358%)
 classical contributions        ...        0 min,  0.000 sec (  0.025%)
 integral evaluation            ...        0 min,  0.007 sec (  0.939%)
 iterations                     ...        0 min,  0.679 sec ( 96.325%)
 molecular gradient             ...        0 min,  0.014 sec (  2.049%)
 printout                       ...        0 min,  0.001 sec (  0.126%)

         :::::::::::::::::::::::::::::::::::::::::::::::::::::
         ::                     SUMMARY                     ::
         :::::::::::::::::::::::::::::::::::::::::::::::::::::
         :: total energy            -184.843427093653 Eh    ::
         :: total w/o Gsasa/hb      -184.784132876945 Eh    ::
         :: gradient norm              1.006797965624 Eh/a0 ::
         :: HOMO-LUMO gap              0.047409176956 eV    ::
         ::.................................................::
         :: SCC energy              -188.096963053627 Eh    ::
         :: -> isotropic ES            0.458434153053 Eh    ::
         :: -> anisotropic ES          0.049633203785 Eh    ::
         :: -> anisotropic XC          0.127078174485 Eh    ::
         :: -> dispersion             -0.141755072022 Eh    ::
         :: -> Gsolv                  -0.122924713873 Eh    ::
         ::    -> Gelec               -0.063630497164 Eh    ::
         ::    -> Gsasa               -0.055831489887 Eh    ::
         ::    -> Ghb                 -0.008416164398 Eh    ::
         ::    -> Gshift               0.004953437577 Eh    ::
         :: repulsion energy           3.253535959974 Eh    ::
         :: add. restraining           0.000000000000 Eh    ::
         :: total charge              -0.000000000001 e     ::
         :::::::::::::::::::::::::::::::::::::::::::::::::::::

           -------------------------------------------------
          |                Property Printout                |
           -------------------------------------------------

    * Orbital Energies and Occupations

         #    Occupation            Energy/Eh            Energy/eV
      -------------------------------------------------------------
         1        2.0000           -0.7445793             -20.2610
       ...           ...                  ...                  ...
       153        2.0000           -0.4225722             -11.4988
       154        2.0000           -0.4202048             -11.4344
       155        2.0000           -0.4195385             -11.4162
       156        2.0000           -0.4179108             -11.3719
       157        2.0000           -0.4141846             -11.2705
       158        2.0000           -0.4101013             -11.1594
       159        2.0000           -0.4087413             -11.1224
       160        1.9993           -0.4060394             -11.0489
       161        1.9808           -0.4029163             -10.9639
       162        1.9664           -0.4023798             -10.9493
       163        1.9264           -0.4016149             -10.9285
       164        1.8323           -0.4007843             -10.9059
       165        1.4789           -0.3995036             -10.8710 (HOMO)
       166        0.6240           -0.3977613             -10.8236 (LUMO)
       167        0.1919           -0.3963818             -10.7861
       168                         -0.3036271              -8.2621
       169                         -0.2544783              -6.9247
       170                         -0.2460266              -6.6947
       171                         -0.2431515              -6.6165
       172                         -0.2420370              -6.5862
       173                         -0.2364178              -6.4333
       174                         -0.2354098              -6.4058
       175                         -0.2237965              -6.0898
       176                         -0.2175487              -5.9198
       ...                                ...                  ...
       299                          0.8867553              24.1298
      -------------------------------------------------------------
                  HL-Gap            0.0017423 Eh            0.0474 eV
             Fermi-level           -0.3985126 Eh          -10.8441 eV

     #   Z          covCN         q      C6AA      α(0)
     1   7 N        2.631    -0.373    29.640     8.086
     2   6 C        3.788     0.021    20.236     6.407
     3   6 C        2.754     0.268    22.480     7.764
     4   8 O        0.859    -0.497    23.711     6.529
     5   6 C        3.759    -0.130    23.038     6.843
     6   7 N        2.688    -0.177    24.827     7.400
     7   6 C        3.795     0.018    20.275     6.412
     8   6 C        2.752     0.272    22.395     7.749
     9   8 O        0.859    -0.474    23.222     6.461
    10   6 C        3.806    -0.072    21.872     6.658
    11   6 C        3.801    -0.075    21.939     6.669
    12   6 C        2.685     0.380    20.572     7.423
    13   8 O        0.856    -0.491    23.586     6.511
    14   8 O        0.856    -0.486    23.482     6.497
    15   7 N        2.685    -0.172    24.732     7.386
    16   6 C        3.792     0.008    20.456     6.441
    17   6 C        2.751     0.274    22.359     7.743
    18   8 O        0.859    -0.464    23.009     6.431
    19   6 C        3.851    -0.024    20.972     6.514
    20   6 C        3.807    -0.074    21.900     6.662
    21   6 C        3.761    -0.116    22.763     6.801
    22   6 C        3.754    -0.119    22.843     6.815
    23   7 N        2.687    -0.176    24.812     7.398
    24   6 C        3.799     0.018    20.269     6.410
    25   6 C        2.755     0.270    22.439     7.757
    26   8 O        0.858    -0.466    23.044     6.436
    27   6 C        3.814    -0.077    21.958     6.669
    28   6 C        3.088     0.063    26.497     8.438
    29   7 N        1.987    -0.236    26.974     7.703
    30   6 C        3.057     0.006    27.841     8.653
    31   6 C        2.109     0.176    26.678     8.346
    32   7 N        1.978    -0.222    26.650     7.656
    33   7 N        2.690    -0.162    24.506     7.352
    34   6 C        3.793     0.013    20.364     6.426
    35   6 C        2.747     0.271    22.422     7.754
    36   8 O        0.858    -0.483    23.422     6.489
    37   6 C        3.803    -0.089    22.199     6.708
    38   6 C        3.848    -0.022    20.929     6.507
    39   6 C        3.758    -0.119    22.838     6.813
    40   6 C        3.758    -0.123    22.904     6.823
    41   7 N        2.684    -0.170    24.675     7.378
    42   6 C        3.782     0.016    20.328     6.423
    43   6 C        2.745     0.271    22.420     7.753
    44   8 O        0.858    -0.469    23.119     6.447
    45   6 C        3.805    -0.082    22.061     6.687
    46   6 C        3.080     0.051    26.762     8.481
    47   7 N        2.842    -0.038    21.982     6.963
    48   6 C        3.054     0.022    27.474     8.596
    49   6 C        2.102     0.089    28.659     8.650
    50   7 N        1.973    -0.180    25.685     7.516
    51   7 N        2.685    -0.161    24.491     7.350
    52   6 C        3.788     0.016    20.313     6.419
    53   6 C        2.763     0.193    23.871     8.001
    54   8 O        0.856    -0.345    20.618     6.088
    55   6 C        3.682     0.071    19.595     6.339
    56   8 O        1.654    -0.467    22.198     6.360
    57   1 H        0.980     0.003     3.004     2.708
    58   1 H        0.980     0.001     3.039     2.724
    59   1 H        0.980    -0.014     3.295     2.837
    60   1 H        0.980     0.015     2.801     2.615
    61   1 H        0.980     0.014     2.823     2.626
    62   1 H        0.980    -0.014     3.299     2.838
    63   1 H        0.980     0.018     2.758     2.595
    64   1 H        0.980    -0.013     3.281     2.830
    65   1 H        0.980     0.020     2.732     2.583
    66   1 H        0.980    -0.008     3.191     2.791
    67   1 H        0.980     0.026     2.636     2.537
    68   1 H        0.980     0.026     2.639     2.539
    69   1 H        0.860     0.175     1.246     1.748
    70   1 H        0.860     0.156     1.360     1.827
    71   1 H        0.926     0.072     2.064     2.247
    72   1 H        0.927     0.043     2.406     2.425
    73   1 H        0.927     0.060     2.203     2.321
    74   1 H        0.927     0.064     2.157     2.297
    75   1 H        0.861     0.210     1.056     1.610
    76   1 H        0.927     0.085     1.924     2.169
    77   1 H        0.927     0.077     2.006     2.215
    78   1 H        0.927     0.076     2.021     2.223
    79   1 H        0.927     0.078     2.001     2.212
    80   1 H        0.927     0.076     2.016     2.220
    81   1 H        0.861     0.211     1.051     1.605
    82   1 H        0.927     0.096     1.825     2.113
    83   1 H        0.926     0.049     2.329     2.386
    84   1 H        0.927     0.043     2.403     2.424
    85   1 H        0.927     0.051     2.307     2.375
    86   1 H        0.927     0.052     2.289     2.366
    87   1 H        0.927     0.035     2.516     2.481
    88   1 H        0.927     0.059     2.210     2.324
    89   1 H        0.927     0.042     2.417     2.431
    90   1 H        0.926     0.048     2.347     2.396
    91   1 H        0.927     0.046     2.366     2.405
    92   1 H        0.861     0.206     1.077     1.626
    93   1 H        0.927     0.115     1.658     2.014
    94   1 H        0.927     0.103     1.755     2.071
    95   1 H        0.927     0.090     1.878     2.143
    96   1 H        0.929     0.076     2.016     2.220
    97   1 H        0.861     0.223     0.996     1.564
    98   1 H        0.927     0.099     1.797     2.096
    99   1 H        0.926     0.073     2.055     2.241
   100   1 H        0.927     0.072     2.068     2.249
   101   1 H        0.927     0.038     2.477     2.461
   102   1 H        0.927     0.036     2.497     2.471
   103   1 H        0.926     0.042     2.423     2.434
   104   1 H        0.926     0.045     2.377     2.411
   105   1 H        0.927     0.043     2.410     2.428
   106   1 H        0.927     0.050     2.317     2.380
   107   1 H        0.926     0.044     2.394     2.419
   108   1 H        0.861     0.219     1.013     1.577
   109   1 H        0.927     0.107     1.722     2.052
   110   1 H        0.927     0.100     1.781     2.087
   111   1 H        0.926     0.107     1.720     2.051
   112   1 H        0.929     0.103     1.757     2.073
   113   1 H        0.861     0.226     0.984     1.554
   114   1 H        0.927     0.113     1.667     2.019
   115   1 H        0.929     0.082     1.960     2.189
   116   1 H        0.927     0.066     2.125     2.279
   117   1 H        0.927     0.065     2.136     2.286
   118   1 H        0.804     0.346     0.598     1.215
   119   1 H        0.980    -0.003     3.097     2.750
   120   1 H        0.980    -0.001     3.059     2.733
   121   1 H        0.980     0.013     2.832     2.630
   122   1 H        0.980    -0.015     3.323     2.849
   123   1 H        0.980    -0.015     3.315     2.845
   124   1 H        0.980     0.015     2.809     2.619
   125   1 H        0.980    -0.016     3.344     2.857
   126   1 H        0.980     0.012     2.854     2.640
   127   1 H        0.980    -0.018     3.373     2.870
   128   1 H        0.980     0.012     2.854     2.640
   129   1 H        0.980    -0.022     3.464     2.908
   130   1 H        0.980    -0.008     3.192     2.792
   131   1 H        0.858     0.224     0.991     1.560

 Mol. C6AA /au·bohr⁶  :     144556.582605
 Mol. C8AA /au·bohr⁸  :    3074996.216006
 Mol. α(0) /au        :        572.335329


Wiberg/Mayer (AO) data.
largest (>0.10) Wiberg bond orders for each atom

 ---------------------------------------------------------------------------
     #   Z sym  total        # sym  WBO       # sym  WBO       # sym  WBO
 ---------------------------------------------------------------------------
     1   7 N    2.986 --     2 C    1.014    69 H    0.953    70 H    0.950
     2   6 C    3.979 --     1 N    1.014     5 C    0.976     3 C    0.949
                            71 H    0.937
     3   6 C    3.942 --     4 O    1.611     6 N    1.304     2 C    0.949
     4   8 O    1.949 --     3 C    1.611     6 N    0.189
     5   6 C    3.985 --    72 H    0.986    74 H    0.982    73 H    0.981
                             2 C    0.976
     6   7 N    3.469 --     3 C    1.304     7 C    0.973    75 H    0.915
                             4 O    0.189
     7   6 C    3.952 --    10 C    0.977     6 N    0.973    76 H    0.946
                             8 C    0.930
     8   6 C    3.949 --     9 O    1.647    15 N    1.297     7 C    0.930
     9   8 O    1.960 --     8 C    1.647    15 N    0.199
    10   6 C    3.979 --    11 C    1.003     7 C    0.977    77 H    0.972
                            78 H    0.970
    11   6 C    3.816 --    10 C    1.003    80 H    0.961    79 H    0.960
                            12 C    0.844
    12   6 C    3.900 --    13 O    1.523    14 O    1.512    11 C    0.844
    13   8 O    1.795 --    12 C    1.523    14 O    0.237
    14   8 O    1.783 --    12 C    1.512    13 O    0.237
    15   7 N    3.466 --     8 C    1.297    16 C    0.971    81 H    0.924
                             9 O    0.199
    16   6 C    3.949 --    15 N    0.971    19 C    0.958    82 H    0.954
                            17 C    0.931
    17   6 C    3.945 --    18 O    1.665    23 N    1.275    16 C    0.931
    18   8 O    1.975 --    17 C    1.665    23 N    0.186
    19   6 C    3.987 --    21 C    1.009    20 C    0.994    83 H    0.967
                            16 C    0.958
    20   6 C    3.994 --    22 C    1.014    19 C    0.994    85 H    0.978
                            84 H    0.977
    21   6 C    3.993 --    19 C    1.009    86 H    0.985    87 H    0.983
                            88 H    0.978
    22   6 C    3.993 --    20 C    1.014    89 H    0.989    90 H    0.986
                            91 H    0.984
    23   7 N    3.442 --    17 C    1.275    24 C    0.979    92 H    0.923
                            18 O    0.186
    24   6 C    3.944 --    23 N    0.979    27 C    0.957    93 H    0.941
                            25 C    0.935
    25   6 C    3.947 --    26 O    1.610    33 N    1.314    24 C    0.935
    26   8 O    1.941 --    25 C    1.610    33 N    0.191
    27   6 C    3.985 --    28 C    1.020    24 C    0.957    94 H    0.950
                            95 H    0.949
    28   6 C    3.902 --    30 C    1.499    29 N    1.178    27 C    1.020
                            31 C    0.130
    29   7 N    3.045 --    31 C    1.656    28 C    1.178    32 N    0.122
    30   6 C    3.902 --    28 C    1.499    32 N    1.213    96 H    0.967
                            31 C    0.134
    31   6 C    3.610 --    29 N    1.656    32 N    1.636    30 C    0.134
                            28 C    0.130
    32   7 N    3.045 --    31 C    1.636    30 C    1.213    29 N    0.122
    33   7 N    3.482 --    25 C    1.314    34 C    0.973    97 H    0.899
                            26 O    0.191
    34   6 C    3.953 --    37 C    0.973    33 N    0.973    98 H    0.939
                            35 C    0.934
    35   6 C    3.950 --    36 O    1.641    41 N    1.298    34 C    0.934
    36   8 O    1.956 --    35 C    1.641    41 N    0.193
    37   6 C    3.978 --    38 C    0.983    34 C    0.973    99 H    0.972
                           100 H    0.955
    38   6 C    3.990 --    39 C    1.009    40 C    1.008    37 C    0.983
                           101 H    0.974
    39   6 C    3.995 --    38 C    1.009   102 H    0.986   104 H    0.985
                           103 H    0.984
    40   6 C    3.994 --    38 C    1.008   107 H    0.987   106 H    0.984
                           105 H    0.980
    41   7 N    3.466 --    35 C    1.298    42 C    0.975   108 H    0.906
                            36 O    0.193
    42   6 C    3.954 --    41 N    0.975    45 C    0.965   109 H    0.936
                            43 C    0.929
    43   6 C    3.948 --    44 O    1.633    51 N    1.308    42 C    0.929
    44   8 O    1.965 --    43 C    1.633    51 N    0.188
    45   6 C    3.979 --    46 C    1.023    42 C    0.965   111 H    0.954
                           110 H    0.952
    46   6 C    3.891 --    48 C    1.537    47 N    1.155    45 C    1.023
                            49 C    0.116
    47   7 N    3.575 --    49 C    1.338    46 C    1.155   131 H    0.914
    48   6 C    3.876 --    46 C    1.537    50 N    1.206   112 H    0.961
    49   6 C    3.340 --    50 N    1.744    47 N    1.338    46 C    0.116
    50   7 N    3.121 --    49 C    1.744    48 C    1.206
    51   7 N    3.462 --    43 C    1.308    52 C    0.979   113 H    0.907
                            44 O    0.188
    52   6 C    3.964 --    51 N    0.979    53 C    0.977    55 C    0.956
                           114 H    0.935
    53   6 C    3.904 --    54 O    1.910    52 C    0.977   115 H    0.947
    54   8 O    2.056 --    53 C    1.910
    55   6 C    3.957 --    56 O    1.010   116 H    0.968   117 H    0.967
                            52 C    0.956
    56   8 O    1.945 --    55 C    1.010   118 H    0.867
    57   1 H    1.000 --   119 H    0.993
    58   1 H    1.000 --   120 H    0.993
    59   1 H    1.000 --   121 H    0.967
    60   1 H    1.000 --   122 H    0.962
    61   1 H    1.000 --   123 H    0.961
    62   1 H    1.000 --   124 H    0.959
    63   1 H    1.000 --   125 H    0.945
    64   1 H    1.000 --   126 H    0.936
    65   1 H    0.999 --   127 H    0.944
    66   1 H    0.997 --   128 H    0.948
    67   1 H    0.995 --   129 H    0.967
    68   1 H    0.983 --   130 H    0.937
    69   1 H    0.969 --     1 N    0.953
    70   1 H    0.974 --     1 N    0.950
    71   1 H    0.994 --     2 C    0.937
    72   1 H    0.998 --     5 C    0.986
    73   1 H    0.996 --     5 C    0.981
    74   1 H    0.995 --     5 C    0.982
    75   1 H    0.956 --     6 N    0.915
    76   1 H    0.992 --     7 C    0.946
    77   1 H    0.993 --    10 C    0.972
    78   1 H    0.993 --    10 C    0.970
    79   1 H    0.991 --    11 C    0.960
    80   1 H    0.991 --    11 C    0.961
    81   1 H    0.955 --    15 N    0.924
    82   1 H    0.990 --    16 C    0.954
    83   1 H    0.998 --    19 C    0.967
    84   1 H    0.998 --    20 C    0.977
    85   1 H    0.997 --    20 C    0.978
    86   1 H    0.997 --    21 C    0.985
    87   1 H    0.999 --    21 C    0.983
    88   1 H    0.996 --    21 C    0.978
    89   1 H    0.998 --    22 C    0.989
    90   1 H    0.997 --    22 C    0.986
    91   1 H    0.998 --    22 C    0.984
    92   1 H    0.958 --    23 N    0.923
    93   1 H    0.986 --    24 C    0.941
    94   1 H    0.988 --    27 C    0.950
    95   1 H    0.989 --    27 C    0.949
    96   1 H    0.994 --    30 C    0.967
    97   1 H    0.950 --    33 N    0.899
    98   1 H    0.989 --    34 C    0.939
    99   1 H    0.994 --    37 C    0.972
   100   1 H    0.994 --    37 C    0.955
   101   1 H    0.997 --    38 C    0.974
   102   1 H    0.998 --    39 C    0.986
   103   1 H    0.998 --    39 C    0.984
   104   1 H    0.998 --    39 C    0.985
   105   1 H    0.998 --    40 C    0.980
   106   1 H    0.997 --    40 C    0.984
   107   1 H    0.998 --    40 C    0.987
   108   1 H    0.952 --    41 N    0.906
   109   1 H    0.988 --    42 C    0.936
   110   1 H    0.984 --    45 C    0.952
   111   1 H    0.984 --    45 C    0.954
   112   1 H    0.988 --    48 C    0.961
   113   1 H    0.949 --    51 N    0.907
   114   1 H    0.987 --    52 C    0.935
   115   1 H    0.993 --    53 C    0.947
   116   1 H    0.995 --    55 C    0.968
   117   1 H    0.996 --    55 C    0.967
   118   1 H    0.880 --    56 O    0.867
   119   1 H    1.000 --    57 H    0.993
   120   1 H    1.000 --    58 H    0.993
   121   1 H    1.000 --    59 H    0.967
   122   1 H    1.000 --    60 H    0.962
   123   1 H    1.000 --    61 H    0.961
   124   1 H    1.000 --    62 H    0.959
   125   1 H    1.000 --    63 H    0.945
   126   1 H    1.000 --    64 H    0.936
   127   1 H    0.998 --    65 H    0.944
   128   1 H    0.997 --    66 H    0.948
   129   1 H    0.991 --    67 H    0.967
   130   1 H    0.979 --    68 H    0.937
   131   1 H    0.950 --    47 N    0.914
 ---------------------------------------------------------------------------

Topologies differ in total number of bonds
Writing topology from bond orders to xtbtopo.mol

molecular dipole:
                 x           y           z       tot (Debye)
 q only:        6.664       0.283       1.745
   full:        7.083      -0.477       1.015      18.226
molecular quadrupole (traceless):
                xx          xy          yy          xz          yz          zz
 q only:     -376.491    1339.964     246.967     -43.547     366.918     129.524
  q+dip:     -281.128    1453.341      54.238     -12.232     197.149     226.891
   full:     -284.206    1453.592      54.694     -12.095     196.457     229.512


           -------------------------------------------------
          | TOTAL ENERGY             -184.843427093653 Eh   |
          | GRADIENT NORM               1.006797965624 Eh/α |
          | HOMO-LUMO GAP               0.047409176956 eV   |
           -------------------------------------------------
########################################################################
[WARNING] Runtime exception occurred
-2- restart_readRestart: Dimension missmatch in restart file.
-1- restart_readRestart: Number of electron missmatch in restart file.
########################################################################

------------------------------------------------------------------------
 * finished run on 2025/05/05 at 17:12:55.280     
------------------------------------------------------------------------
 total:
 * wall-time:     0 d,  0 h,  0 min,  0.715 sec
 *  cpu-time:     0 d,  0 h,  0 min, 20.656 sec
 * ratio c/w:    28.869 speedup
 SCF:
 * wall-time:     0 d,  0 h,  0 min,  0.705 sec
 *  cpu-time:     0 d,  0 h,  0 min, 20.425 sec
 * ratio c/w:    28.959 speedup

