      -----------------------------------------------------------      
     |                   =====================                   |     
     |                           x T B                           |     
     |                   =====================                   |     
     |                         S. Grimme                         |     
     |          Mulliken Center for Theoretical Chemistry        |     
     |                    University of Bonn                     |     
      -----------------------------------------------------------      

   * xtb version 6.7.1 (edcfbbe) compiled by 'conda@afd1a870197c' on 2025-04-11

   xtb is free software: you can redistribute it and/or modify it under
   the terms of the GNU Lesser General Public License as published by
   the Free Software Foundation, either version 3 of the License, or
   (at your option) any later version.
   
   xtb is distributed in the hope that it will be useful,
   but WITHOUT ANY WARRANTY; without even the implied warranty of
   MERCHANTABILITY or FITNESS FOR A PARTICULAR PURPOSE.  See the
   GNU Lesser General Public License for more details.
   
   Cite this work as:
   * C. Bannwarth, E. Caldeweyher, S. Ehlert, A. Hansen, P. Pracht,
     J. Seibert, S. Spicher, S. Grimme, WIREs Comput. Mol. Sci., 2020, 11,
     e01493. DOI: 10.1002/wcms.1493
   
   for GFN2-xTB:
   * C. Bannwarth, S. Ehlert and S. Grimme., J. Chem. Theory Comput., 2019,
     15, 1652-1671. DOI: 10.1021/acs.jctc.8b01176
   for GFN1-xTB:
   * S. Grimme, C. Bannwarth, P. Shushkov, J. Chem. Theory Comput., 2017,
     13, 1989-2009. DOI: 10.1021/acs.jctc.7b00118
   for GFN0-xTB:
   * P. Pracht, E. Caldeweyher, S. Ehlert, S. Grimme, ChemRxiv, 2019, preprint.
     DOI: 10.26434/chemrxiv.8326202.v1
   for GFN-FF:
   * S. Spicher and S. Grimme, Angew. Chem. Int. Ed., 2020, 59, 15665-15673.
     DOI: 10.1002/anie.202004239
   
   for ALPB and GBSA implicit solvation:
   * S. Ehlert, M. Stahn, S. Spicher, S. Grimme, J. Chem. Theory Comput.,
     2021, 17, 4250-4261. DOI: 10.1021/acs.jctc.1c00471
   
   for ddCOSMO and CPCM-X implicit solvation:
   * M. Stahn, S. Ehlert, S. Grimme, J. Phys. Chem. A,
     2023, XX, XXXX-XXXX. DOI: 10.1021/acs.jpca.3c04382
   
   for DFT-D4:
   * E. Caldeweyher, C. Bannwarth and S. Grimme, J. Chem. Phys., 2017,
     147, 034112. DOI: 10.1063/1.4993215
   * E. Caldeweyher, S. Ehlert, A. Hansen, H. Neugebauer, S. Spicher,
     C. Bannwarth and S. Grimme, J. Chem. Phys., 2019, 150, 154122.
     DOI: 10.1063/1.5090222
   * E. Caldeweyher, J.-M. Mewes, S. Ehlert and S. Grimme, Phys. Chem. Chem. Phys.
     2020, 22, 8499-8512. DOI: 10.1039/D0CP00502A
   
   for sTDA-xTB:
   * S. Grimme and C. Bannwarth, J. Chem. Phys., 2016, 145, 054103.
     DOI: 10.1063/1.4959605
   
   in the mass-spec context:
   * V. Asgeirsson, C. Bauer and S. Grimme, Chem. Sci., 2017, 8, 4879.
     DOI: 10.1039/c7sc00601b
   * J. Koopman and S. Grimme, ACS Omega 2019, 4, 12, 15120-15133.
     DOI: 10.1021/acsomega.9b02011
   
   for metadynamics refer to:
   * S. Grimme, J. Chem. Theory Comput., 2019, 155, 2847-2862
     DOI: 10.1021/acs.jctc.9b00143
   
   for SPH calculations refer to:
   * S. Spicher and S. Grimme, J. Chem. Theory Comput., 2021, 17, 1701-1714
     DOI: 10.1021/acs.jctc.0c01306
   
   for ONIOM refer to:
   * C. Plett, A. Katbashev, S. Ehlert, S. Grimme, M. Bursch,
     Phys. Chem. Chem. Phys., 2023, 25, 17860-17868. DOI: 10.1039/D3CP02178E
   
   for DIPRO refer to:
   * J. Kohn, N. Gildemeister, S. Grimme, D. Fazzi, A. Hansen,
     J. Chem. Phys., 2023, just accepted.
   
   for PTB refer to:
   * S. Grimme, M. Mueller, A. Hansen, J. Chem. Phys., 2023, 158, 124111.
     DOI: 10.1063/5.0137838
   
   with help from (in alphabetical order)
   P. Atkinson, C. Bannwarth, F. Bohle, G. Brandenburg, E. Caldeweyher
   M. Checinski, S. Dohm, S. Ehlert, S. Ehrlich, I. Gerasimov, C. Hölzer
   A. Katbashev, J. Kohn, J. Koopman, C. Lavigne, S. Lehtola, F. März, M. Müller,
   F. Musil, H. Neugebauer, J. Pisarek, C. Plett, P. Pracht, F. Pultar,
   J. Seibert, P. Shushkov, S. Spicher, M. Stahn, M. Steiner, T. Strunk,
   J. Stückrath, T. Rose, and J. Unsleber
   
 * started run on 2025/05/05 at 17:12:55.296     
   ID    Z sym.   atoms
    1    7 N      1, 6, 15, 23, 29, 32, 33, 41, 47, 50, 51
    2    6 C      2, 3, 5, 7, 8, 10-12, 16, 17, 19-22, 24, 25, 27, 28, 30,
                  31, 34, 35, 37-40, 42, 43, 45, 46, 48, 49, 52, 53, 55
    3    8 O      4, 9, 13, 14, 18, 26, 36, 44, 54, 56
    4    1 H      57-131

           -------------------------------------------------
          |                Calculation Setup                |
           -------------------------------------------------

          program call               : xtb /tmp/tmpextcq91v/HIE/input.xyz --alpb ether --chrg 0 --input /tmp/tmpextcq91v/HIE/constraints.inp --gfn 2
          hostname                   : fedora
          coordinate file            : /tmp/tmpextcq91v/HIE/input.xyz
          omp threads                :                    32


molecular fragmentation (1/2 indicates fragments):
111111111111111111111111111111111111111111111111111111112222222222221111
11111111111111111111111111111111111111111111112222222222221
# atoms in fragment 1/2:   107    24
 fragment masses (1/2) :      785.85       24.19
CMA distance (Bohr)    :  19.642
constraining FC (au)   :  0.0500
########################################################################
[WARNING] Please study the warnings concerning your input carefully
-1- readin_getIntValue: could not parse 'S'
########################################################################

           -------------------------------------------------
          |                 G F N 2 - x T B                 |
           -------------------------------------------------

        Reference                      10.1021/acs.jctc.8b01176
      * Hamiltonian:
        H0-scaling (s, p, d)           1.850000    2.230000    2.230000
        zeta-weighting                 0.500000
      * Dispersion:
        s8                             2.700000
        a1                             0.520000
        a2                             5.000000
        s9                             5.000000
      * Repulsion:
        kExp                           1.500000    1.000000
        rExp                           1.000000
      * Coulomb:
        alpha                          2.000000
        third order                    shell-resolved
        anisotropic                    true
        a3                             3.000000
        a5                             4.000000
        cn-shift                       1.200000
        cn-exp                         4.000000
        max-rad                        5.000000

      * Solvation model:               ALPB
        Solvent                        ether
        Parameter file                 internal GFN2-xTB/ALPB
        Dielectric constant                4.3300E+00
        Reference state                gsolv [1 M gas/solution]
        Free energy shift                  4.9534E-03 Eh       3.1083E+00 kcal/mol
        Temperature                        2.9815E+02 K
        Density                            7.1300E-01 kg/L
        Solvent mass                       7.4120E+01 g/mol
        Interaction kernel             P16
        Born radius scaling (c1)           1.5847E+00
        Born radii integrator          GBOBC
        Born offset                        0.0000E+00 a0       0.0000E+00 AA
        H-bond correction              true
        Ion screening                  false
        Surface tension                    1.0000E-05 Eh       1.5569E+01 dyn/cm
        Grid points                               230 per atom

          ...................................................
          :                      SETUP                      :
          :.................................................:
          :  # basis functions                 299          :
          :  # atomic orbitals                 299          :
          :  # shells                          187          :
          :  # electrons                       330          :
          :  max. iterations                   250          :
          :  Hamiltonian                  GFN2-xTB          :
          :  restarted?                      false          :
          :  GBSA solvation                   true          :
          :  PC potential                    false          :
          :  electronic temp.          300.0000000     K    :
          :  accuracy                    1.0000000          :
          :  -> integral cutoff          0.2500000E+02      :
          :  -> integral neglect         0.1000000E-07      :
          :  -> SCF convergence          0.1000000E-05 Eh   :
          :  -> wf. convergence          0.1000000E-03 e    :
          :  Broyden damping             0.4000000          :
          :  net charge                          0          :
          :  unpaired electrons                  0          :
          ...................................................

 iter      E             dE          RMSdq      gap      omega  full diag
   1   -186.2556319 -0.186256E+03  0.456E+00    0.03       0.0  T
   2   -185.1756948  0.107994E+01  0.411E+00    0.07       1.0  T
   3   -187.1683812 -0.199269E+01  0.279E+00    0.42       1.0  T
   4   -187.0458474  0.122534E+00  0.243E+00    0.01       1.0  T
   5   -187.8248243 -0.778977E+00  0.182E+00    0.27       1.0  T
   6   -187.5080237  0.316801E+00  0.168E+00    0.03       1.0  T
   7   -187.3795919  0.128432E+00  0.169E+00    0.29       1.0  T
   8   -186.7702303  0.609362E+00  0.207E+00    0.02       1.0  T
   9   -187.8905387 -0.112031E+01  0.121E+00    0.05       1.0  T
  10   -187.9726885 -0.821498E-01  0.103E+00    0.22       1.0  T
  11   -187.5110550  0.461633E+00  0.154E+00    0.12       1.0  T
  12   -187.9523370 -0.441282E+00  0.101E+00    0.24       1.0  T
  13   -187.9984414 -0.461043E-01  0.839E-01    0.10       1.0  T
  14   -187.5994284  0.399013E+00  0.159E+00    0.05       1.0  T
  15   -188.0159256 -0.416497E+00  0.606E-01    0.00       1.0  T
  16   -187.9757465  0.401790E-01  0.679E-01    0.02       1.0  T
  17   -188.0077580 -0.320115E-01  0.732E-01    0.25       1.0  T
  18   -188.0410239 -0.332658E-01  0.508E-01    0.06       1.0  T
  19   -188.0490791 -0.805524E-02  0.523E-01    0.13       1.0  T
  20   -188.0703599 -0.212808E-01  0.425E-01    0.10       1.0  T
  21   -188.0161118  0.542481E-01  0.649E-01    0.01       1.0  T
  22   -188.0841902 -0.680784E-01  0.356E-01    0.03       1.0  T
  23   -188.0756677  0.852249E-02  0.390E-01    0.11       1.0  T
  24   -188.0930956 -0.174279E-01  0.293E-01    0.06       1.0  T
  25   -188.0635768  0.295188E-01  0.447E-01    0.02       1.0  T
  26   -188.0874139 -0.238371E-01  0.312E-01    0.04       1.0  T
  27   -188.0753395  0.120744E-01  0.387E-01    0.04       1.0  T
  28   -188.0904936 -0.151542E-01  0.283E-01    0.07       1.0  T
  29   -188.0906563 -0.162644E-03  0.271E-01    0.07       1.0  T
  30   -188.0932273 -0.257105E-02  0.242E-01    0.07       1.0  T
  31   -188.0980132 -0.478587E-02  0.183E-01    0.07       1.0  T
  32   -188.1011843 -0.317109E-02  0.127E-01    0.06       1.0  T
  33   -188.1007121  0.472186E-03  0.123E-01    0.06       1.0  T
  34   -188.1033420 -0.262987E-02  0.387E-02    0.05       1.0  T
  35   -188.1035253 -0.183313E-03  0.287E-02    0.05       1.0  T
  36   -188.1035579 -0.325973E-04  0.230E-02    0.05       1.0  T
  37   -188.1036420 -0.840736E-04  0.143E-02    0.05       1.0  T
  38   -188.1036656 -0.236961E-04  0.872E-03    0.05       1.0  T
  39   -188.1036783 -0.126384E-04  0.443E-03    0.05       2.0  T
  40   -188.1036796 -0.128102E-05  0.338E-03    0.05       2.6  T
  41   -188.1036801 -0.536409E-06  0.280E-03    0.05       3.1  T
  42   -188.1036809 -0.813422E-06  0.211E-03    0.05       4.1  T
  43   -188.1036812 -0.306064E-06  0.167E-03    0.05       5.2  T
  44   -188.1036814 -0.223949E-06  0.130E-03    0.05       6.7  T
  45   -188.1036816 -0.188683E-06  0.829E-04    0.05      10.5  T
  46   -188.1036817 -0.104342E-06  0.401E-04    0.05      21.8  T

   *** convergence criteria satisfied after 46 iterations ***

         #    Occupation            Energy/Eh            Energy/eV
      -------------------------------------------------------------
         1        2.0000           -0.7413836             -20.1741
       ...           ...                  ...                  ...
       159        2.0000           -0.4049391             -11.0190
       160        1.9911           -0.3999837             -10.8841
       161        1.9797           -0.3991923             -10.8626
       162        1.9744           -0.3989684             -10.8565
       163        1.9181           -0.3978366             -10.8257
       164        1.8149           -0.3970098             -10.8032
       165        1.5015           -0.3958886             -10.7727 (HOMO)
       166        0.6164           -0.3940729             -10.7233 (LUMO)
       167        0.2039           -0.3927742             -10.6879
       168                         -0.3029668              -8.2441
       169                         -0.2513251              -6.8389
       170                         -0.2430478              -6.6137
       ...                                ...                  ...
       299                          0.8902309              24.2244
      -------------------------------------------------------------
                  HL-Gap            0.0018157 Eh            0.0494 eV
             Fermi-level           -0.3948410 Eh          -10.7442 eV

 SCC (total)                   0 d,  0 h,  0 min,  0.555 sec
 SCC setup                      ...        0 min,  0.002 sec (  0.432%)
 Dispersion                     ...        0 min,  0.003 sec (  0.557%)
 classical contributions        ...        0 min,  0.000 sec (  0.017%)
 integral evaluation            ...        0 min,  0.005 sec (  0.835%)
 iterations                     ...        0 min,  0.530 sec ( 95.395%)
 molecular gradient             ...        0 min,  0.015 sec (  2.621%)
 printout                       ...        0 min,  0.001 sec (  0.140%)

         :::::::::::::::::::::::::::::::::::::::::::::::::::::
         ::                     SUMMARY                     ::
         :::::::::::::::::::::::::::::::::::::::::::::::::::::
         :: total energy            -184.842031460190 Eh    ::
         :: total w/o Gsasa/hb      -184.781280431028 Eh    ::
         :: gradient norm              1.007084108368 Eh/a0 ::
         :: HOMO-LUMO gap              0.049406917139 eV    ::
         ::.................................................::
         :: SCC energy              -188.095553076218 Eh    ::
         :: -> isotropic ES            0.462670101950 Eh    ::
         :: -> anisotropic ES          0.049085865145 Eh    ::
         :: -> anisotropic XC          0.126767951058 Eh    ::
         :: -> dispersion             -0.141465848088 Eh    ::
         :: -> Gsolv                  -0.126554672859 Eh    ::
         ::    -> Gelec               -0.065803643697 Eh    ::
         ::    -> Gsasa               -0.056079980599 Eh    ::
         ::    -> Ghb                 -0.009624486140 Eh    ::
         ::    -> Gshift               0.004953437577 Eh    ::
         :: repulsion energy           3.253521616028 Eh    ::
         :: add. restraining           0.000000000000 Eh    ::
         :: total charge              -0.000000000001 e     ::
         :::::::::::::::::::::::::::::::::::::::::::::::::::::

           -------------------------------------------------
          |                Property Printout                |
           -------------------------------------------------

    * Orbital Energies and Occupations

         #    Occupation            Energy/Eh            Energy/eV
      -------------------------------------------------------------
         1        2.0000           -0.7413836             -20.1741
       ...           ...                  ...                  ...
       153        2.0000           -0.4189160             -11.3993
       154        2.0000           -0.4176988             -11.3662
       155        2.0000           -0.4167345             -11.3399
       156        2.0000           -0.4142333             -11.2719
       157        2.0000           -0.4106855             -11.1753
       158        2.0000           -0.4070243             -11.0757
       159        2.0000           -0.4049391             -11.0190
       160        1.9911           -0.3999837             -10.8841
       161        1.9797           -0.3991923             -10.8626
       162        1.9744           -0.3989684             -10.8565
       163        1.9181           -0.3978366             -10.8257
       164        1.8149           -0.3970098             -10.8032
       165        1.5015           -0.3958886             -10.7727 (HOMO)
       166        0.6164           -0.3940729             -10.7233 (LUMO)
       167        0.2039           -0.3927742             -10.6879
       168                         -0.3029668              -8.2441
       169                         -0.2513251              -6.8389
       170                         -0.2430478              -6.6137
       171                         -0.2392594              -6.5106
       172                         -0.2388225              -6.4987
       173                         -0.2334338              -6.3521
       174                         -0.2250279              -6.1233
       175                         -0.2217308              -6.0336
       176                         -0.2138326              -5.8187
       ...                                ...                  ...
       299                          0.8902309              24.2244
      -------------------------------------------------------------
                  HL-Gap            0.0018157 Eh            0.0494 eV
             Fermi-level           -0.3948410 Eh          -10.7442 eV

     #   Z          covCN         q      C6AA      α(0)
     1   7 N        2.631    -0.375    29.681     8.091
     2   6 C        3.788     0.021    20.238     6.407
     3   6 C        2.754     0.268    22.481     7.764
     4   8 O        0.859    -0.496    23.700     6.527
     5   6 C        3.759    -0.129    23.034     6.842
     6   7 N        2.688    -0.177    24.835     7.401
     7   6 C        3.795     0.018    20.274     6.412
     8   6 C        2.752     0.272    22.396     7.749
     9   8 O        0.859    -0.475    23.240     6.463
    10   6 C        3.806    -0.072    21.863     6.656
    11   6 C        3.801    -0.076    21.952     6.671
    12   6 C        2.685     0.379    20.588     7.425
    13   8 O        0.856    -0.497    23.711     6.529
    14   8 O        0.856    -0.493    23.624     6.517
    15   7 N        2.685    -0.173    24.737     7.387
    16   6 C        3.792     0.008    20.454     6.441
    17   6 C        2.751     0.274    22.359     7.743
    18   8 O        0.859    -0.464    22.999     6.430
    19   6 C        3.851    -0.024    20.972     6.514
    20   6 C        3.807    -0.073    21.898     6.661
    21   6 C        3.761    -0.116    22.761     6.801
    22   6 C        3.754    -0.119    22.841     6.815
    23   7 N        2.687    -0.175    24.793     7.395
    24   6 C        3.799     0.019    20.263     6.409
    25   6 C        2.755     0.271    22.427     7.755
    26   8 O        0.858    -0.457    22.862     6.411
    27   6 C        3.814    -0.077    21.961     6.670
    28   6 C        3.088     0.062    26.503     8.439
    29   7 N        1.987    -0.238    27.019     7.709
    30   6 C        3.057     0.005    27.849     8.654
    31   6 C        2.109     0.173    26.730     8.354
    32   7 N        1.978    -0.225    26.720     7.666
    33   7 N        2.690    -0.158    24.416     7.339
    34   6 C        3.793     0.014    20.354     6.425
    35   6 C        2.747     0.277    22.305     7.733
    36   8 O        0.858    -0.462    22.968     6.425
    37   6 C        3.803    -0.089    22.202     6.708
    38   6 C        3.848    -0.022    20.925     6.507
    39   6 C        3.758    -0.120    22.851     6.815
    40   6 C        3.758    -0.123    22.908     6.824
    41   7 N        2.684    -0.166    24.583     7.364
    42   6 C        3.782     0.017    20.306     6.419
    43   6 C        2.745     0.271    22.418     7.753
    44   8 O        0.858    -0.477    23.281     6.469
    45   6 C        3.805    -0.077    21.970     6.673
    46   6 C        3.080     0.082    26.080     8.372
    47   7 N        1.984    -0.189    25.877     7.544
    48   6 C        3.054    -0.016    28.361     8.734
    49   6 C        2.102     0.081    28.849     8.678
    50   7 N        2.832    -0.048    22.166     6.992
    51   7 N        2.685    -0.163    24.517     7.354
    52   6 C        3.788     0.017    20.306     6.418
    53   6 C        2.763     0.194    23.864     8.000
    54   8 O        0.856    -0.346    20.639     6.091
    55   6 C        3.682     0.071    19.591     6.338
    56   8 O        1.654    -0.467    22.194     6.360
    57   1 H        0.980     0.003     2.999     2.706
    58   1 H        0.980     0.001     3.035     2.722
    59   1 H        0.980    -0.013     3.290     2.834
    60   1 H        0.980     0.015     2.795     2.612
    61   1 H        0.980     0.014     2.817     2.622
    62   1 H        0.980    -0.013     3.290     2.834
    63   1 H        0.980     0.019     2.747     2.590
    64   1 H        0.980    -0.012     3.260     2.822
    65   1 H        0.980     0.022     2.694     2.565
    66   1 H        0.980    -0.004     3.119     2.760
    67   1 H        0.980     0.027     2.623     2.531
    68   1 H        0.980     0.029     2.599     2.519
    69   1 H        0.860     0.174     1.252     1.753
    70   1 H        0.860     0.155     1.368     1.832
    71   1 H        0.926     0.072     2.065     2.247
    72   1 H        0.927     0.043     2.414     2.429
    73   1 H        0.927     0.059     2.208     2.324
    74   1 H        0.927     0.063     2.163     2.300
    75   1 H        0.861     0.209     1.059     1.612
    76   1 H        0.927     0.084     1.933     2.174
    77   1 H        0.927     0.076     2.018     2.222
    78   1 H        0.927     0.075     2.031     2.229
    79   1 H        0.927     0.076     2.023     2.224
    80   1 H        0.927     0.074     2.041     2.234
    81   1 H        0.861     0.211     1.052     1.606
    82   1 H        0.927     0.095     1.828     2.114
    83   1 H        0.926     0.049     2.329     2.386
    84   1 H        0.927     0.043     2.405     2.425
    85   1 H        0.927     0.051     2.310     2.377
    86   1 H        0.927     0.052     2.292     2.367
    87   1 H        0.927     0.035     2.513     2.479
    88   1 H        0.927     0.059     2.211     2.325
    89   1 H        0.927     0.042     2.418     2.432
    90   1 H        0.926     0.048     2.350     2.397
    91   1 H        0.927     0.046     2.367     2.406
    92   1 H        0.861     0.206     1.075     1.624
    93   1 H        0.927     0.115     1.651     2.009
    94   1 H        0.927     0.103     1.755     2.072
    95   1 H        0.927     0.090     1.879     2.144
    96   1 H        0.929     0.075     2.032     2.229
    97   1 H        0.861     0.224     0.992     1.560
    98   1 H        0.927     0.105     1.744     2.065
    99   1 H        0.926     0.074     2.042     2.235
   100   1 H        0.927     0.073     2.056     2.242
   101   1 H        0.927     0.039     2.455     2.450
   102   1 H        0.927     0.037     2.491     2.468
   103   1 H        0.926     0.043     2.410     2.428
   104   1 H        0.926     0.046     2.371     2.408
   105   1 H        0.927     0.043     2.405     2.425
   106   1 H        0.927     0.050     2.313     2.378
   107   1 H        0.926     0.044     2.393     2.419
   108   1 H        0.861     0.219     1.013     1.577
   109   1 H        0.927     0.105     1.738     2.062
   110   1 H        0.927     0.105     1.735     2.060
   111   1 H        0.926     0.099     1.795     2.095
   112   1 H        0.929     0.099     1.798     2.097
   113   1 H        0.861     0.225     0.985     1.555
   114   1 H        0.927     0.112     1.677     2.025
   115   1 H        0.929     0.081     1.964     2.191
   116   1 H        0.927     0.066     2.131     2.283
   117   1 H        0.927     0.065     2.137     2.286
   118   1 H        0.804     0.346     0.599     1.216
   119   1 H        0.980    -0.003     3.103     2.752
   120   1 H        0.980    -0.001     3.064     2.735
   121   1 H        0.980     0.013     2.838     2.632
   122   1 H        0.980    -0.015     3.330     2.852
   123   1 H        0.980    -0.015     3.324     2.849
   124   1 H        0.980     0.014     2.816     2.622
   125   1 H        0.980    -0.017     3.359     2.864
   126   1 H        0.980     0.011     2.868     2.647
   127   1 H        0.980    -0.020     3.414     2.887
   128   1 H        0.980     0.009     2.895     2.659
   129   1 H        0.980    -0.022     3.454     2.904
   130   1 H        0.980    -0.006     3.151     2.774
   131   1 H        0.858     0.240     0.922     1.504

 Mol. C6AA /au·bohr⁶  :     144555.482233
 Mol. C8AA /au·bohr⁸  :    3075165.589245
 Mol. α(0) /au        :        572.338285


Wiberg/Mayer (AO) data.
largest (>0.10) Wiberg bond orders for each atom

 ---------------------------------------------------------------------------
     #   Z sym  total        # sym  WBO       # sym  WBO       # sym  WBO
 ---------------------------------------------------------------------------
     1   7 N    2.988 --     2 C    1.014    69 H    0.953    70 H    0.951
     2   6 C    3.979 --     1 N    1.014     5 C    0.977     3 C    0.949
                            71 H    0.937
     3   6 C    3.942 --     4 O    1.613     6 N    1.303     2 C    0.949
     4   8 O    1.951 --     3 C    1.613     6 N    0.189
     5   6 C    3.987 --    72 H    0.986    74 H    0.982    73 H    0.981
                             2 C    0.977
     6   7 N    3.468 --     3 C    1.303     7 C    0.973    75 H    0.915
                             4 O    0.189
     7   6 C    3.953 --    10 C    0.977     6 N    0.973    76 H    0.946
                             8 C    0.930
     8   6 C    3.949 --     9 O    1.647    15 N    1.297     7 C    0.930
     9   8 O    1.960 --     8 C    1.647    15 N    0.199
    10   6 C    3.980 --    11 C    1.003     7 C    0.977    77 H    0.973
                            78 H    0.971
    11   6 C    3.822 --    10 C    1.003    80 H    0.962    79 H    0.961
                            12 C    0.848
    12   6 C    3.901 --    13 O    1.522    14 O    1.511    11 C    0.848
    13   8 O    1.793 --    12 C    1.522    14 O    0.235
    14   8 O    1.781 --    12 C    1.511    13 O    0.235
    15   7 N    3.466 --     8 C    1.297    16 C    0.971    81 H    0.924
                             9 O    0.199
    16   6 C    3.949 --    15 N    0.971    19 C    0.958    82 H    0.954
                            17 C    0.931
    17   6 C    3.945 --    18 O    1.665    23 N    1.274    16 C    0.931
    18   8 O    1.975 --    17 C    1.665    23 N    0.186
    19   6 C    3.987 --    21 C    1.009    20 C    0.994    83 H    0.967
                            16 C    0.958
    20   6 C    3.994 --    22 C    1.014    19 C    0.994    85 H    0.978
                            84 H    0.977
    21   6 C    3.993 --    19 C    1.009    86 H    0.985    87 H    0.983
                            88 H    0.979
    22   6 C    3.993 --    20 C    1.014    89 H    0.989    90 H    0.986
                            91 H    0.984
    23   7 N    3.442 --    17 C    1.274    24 C    0.979    92 H    0.923
                            18 O    0.186
    24   6 C    3.941 --    23 N    0.979    27 C    0.957    93 H    0.941
                            25 C    0.933
    25   6 C    3.945 --    26 O    1.611    33 N    1.314    24 C    0.933
    26   8 O    1.937 --    25 C    1.611    33 N    0.188
    27   6 C    3.984 --    28 C    1.020    24 C    0.957    94 H    0.950
                            95 H    0.950
    28   6 C    3.901 --    30 C    1.498    29 N    1.178    27 C    1.020
                            31 C    0.128
    29   7 N    3.043 --    31 C    1.655    28 C    1.178    32 N    0.121
    30   6 C    3.901 --    28 C    1.498    32 N    1.214    96 H    0.968
                            31 C    0.133
    31   6 C    3.600 --    29 N    1.655    32 N    1.630    30 C    0.133
                            28 C    0.128
    32   7 N    3.039 --    31 C    1.630    30 C    1.214    29 N    0.121
    33   7 N    3.479 --    25 C    1.314    34 C    0.974    97 H    0.899
                            26 O    0.188
    34   6 C    3.942 --    33 N    0.974    37 C    0.974    98 H    0.937
                            35 C    0.927
    35   6 C    3.946 --    36 O    1.650    41 N    1.295    34 C    0.927
    36   8 O    1.969 --    35 C    1.650    41 N    0.187
    37   6 C    3.975 --    38 C    0.981    34 C    0.974    99 H    0.972
                           100 H    0.954
    38   6 C    3.986 --    39 C    1.010    40 C    1.008    37 C    0.981
                           101 H    0.972
    39   6 C    3.994 --    38 C    1.010   102 H    0.986   104 H    0.985
                           103 H    0.984
    40   6 C    3.994 --    38 C    1.008   107 H    0.987   106 H    0.984
                           105 H    0.980
    41   7 N    3.462 --    35 C    1.295    42 C    0.975   108 H    0.906
                            36 O    0.187
    42   6 C    3.956 --    41 N    0.975    45 C    0.966   109 H    0.935
                            43 C    0.932
    43   6 C    3.948 --    44 O    1.630    51 N    1.308    42 C    0.932
    44   8 O    1.956 --    43 C    1.630    51 N    0.188
    45   6 C    3.979 --    46 C    1.022    42 C    0.966   111 H    0.954
                           110 H    0.954
    46   6 C    3.891 --    48 C    1.546    47 N    1.177    45 C    1.022
    47   7 N    3.125 --    49 C    1.754    46 C    1.177
    48   6 C    3.889 --    46 C    1.546    50 N    1.177   112 H    0.963
                            49 C    0.127
    49   6 C    3.358 --    47 N    1.754    50 N    1.333    48 C    0.127
    50   7 N    3.568 --    49 C    1.333    48 C    1.177   131 H    0.910
    51   7 N    3.463 --    43 C    1.308    52 C    0.979   113 H    0.907
                            44 O    0.188
    52   6 C    3.965 --    51 N    0.979    53 C    0.977    55 C    0.956
                           114 H    0.936
    53   6 C    3.903 --    54 O    1.909    52 C    0.977   115 H    0.947
    54   8 O    2.055 --    53 C    1.909
    55   6 C    3.957 --    56 O    1.010   116 H    0.968   117 H    0.967
                            52 C    0.956
    56   8 O    1.945 --    55 C    1.010   118 H    0.867
    57   1 H    1.000 --   119 H    0.993
    58   1 H    1.000 --   120 H    0.993
    59   1 H    1.000 --   121 H    0.967
    60   1 H    1.000 --   122 H    0.962
    61   1 H    1.000 --   123 H    0.961
    62   1 H    1.000 --   124 H    0.959
    63   1 H    1.000 --   125 H    0.945
    64   1 H    1.000 --   126 H    0.936
    65   1 H    0.998 --   127 H    0.943
    66   1 H    0.996 --   128 H    0.947
    67   1 H    0.995 --   129 H    0.966
    68   1 H    0.978 --   130 H    0.933
    69   1 H    0.969 --     1 N    0.953
    70   1 H    0.975 --     1 N    0.951
    71   1 H    0.994 --     2 C    0.937
    72   1 H    0.998 --     5 C    0.986
    73   1 H    0.996 --     5 C    0.981
    74   1 H    0.996 --     5 C    0.982
    75   1 H    0.956 --     6 N    0.915
    76   1 H    0.992 --     7 C    0.946
    77   1 H    0.994 --    10 C    0.973
    78   1 H    0.993 --    10 C    0.971
    79   1 H    0.991 --    11 C    0.961
    80   1 H    0.992 --    11 C    0.962
    81   1 H    0.955 --    15 N    0.924
    82   1 H    0.990 --    16 C    0.954
    83   1 H    0.998 --    19 C    0.967
    84   1 H    0.998 --    20 C    0.977
    85   1 H    0.997 --    20 C    0.978
    86   1 H    0.997 --    21 C    0.985
    87   1 H    0.999 --    21 C    0.983
    88   1 H    0.996 --    21 C    0.979
    89   1 H    0.998 --    22 C    0.989
    90   1 H    0.997 --    22 C    0.986
    91   1 H    0.998 --    22 C    0.984
    92   1 H    0.958 --    23 N    0.923
    93   1 H    0.986 --    24 C    0.941
    94   1 H    0.988 --    27 C    0.950
    95   1 H    0.989 --    27 C    0.950
    96   1 H    0.994 --    30 C    0.968
    97   1 H    0.950 --    33 N    0.899
    98   1 H    0.988 --    34 C    0.937
    99   1 H    0.993 --    37 C    0.972
   100   1 H    0.993 --    37 C    0.954
   101   1 H    0.996 --    38 C    0.972
   102   1 H    0.998 --    39 C    0.986
   103   1 H    0.998 --    39 C    0.984
   104   1 H    0.997 --    39 C    0.985
   105   1 H    0.998 --    40 C    0.980
   106   1 H    0.997 --    40 C    0.984
   107   1 H    0.998 --    40 C    0.987
   108   1 H    0.952 --    41 N    0.906
   109   1 H    0.987 --    42 C    0.935
   110   1 H    0.984 --    45 C    0.954
   111   1 H    0.985 --    45 C    0.954
   112   1 H    0.990 --    48 C    0.963
   113   1 H    0.949 --    51 N    0.907
   114   1 H    0.987 --    52 C    0.936
   115   1 H    0.993 --    53 C    0.947
   116   1 H    0.995 --    55 C    0.968
   117   1 H    0.996 --    55 C    0.967
   118   1 H    0.880 --    56 O    0.867
   119   1 H    1.000 --    57 H    0.993
   120   1 H    1.000 --    58 H    0.993
   121   1 H    1.000 --    59 H    0.967
   122   1 H    1.000 --    60 H    0.962
   123   1 H    1.000 --    61 H    0.961
   124   1 H    1.000 --    62 H    0.959
   125   1 H    1.000 --    63 H    0.945
   126   1 H    0.999 --    64 H    0.936
   127   1 H    0.997 --    65 H    0.943
   128   1 H    0.996 --    66 H    0.947
   129   1 H    0.989 --    67 H    0.966
   130   1 H    0.974 --    68 H    0.933
   131   1 H    0.942 --    50 N    0.910
 ---------------------------------------------------------------------------

Topologies differ in total number of bonds
Writing topology from bond orders to xtbtopo.mol

molecular dipole:
                 x           y           z       tot (Debye)
 q only:        5.835       2.213       2.074
   full:        5.838       2.033       1.393      16.107
molecular quadrupole (traceless):
                xx          xy          yy          xz          yz          zz
 q only:     -621.303    1089.113     782.709     -82.526     483.864    -161.407
  q+dip:     -592.822    1093.013     748.427     -64.203     340.262    -155.604
   full:     -595.400    1093.134     748.425     -64.051     339.528    -153.025


           -------------------------------------------------
          | TOTAL ENERGY             -184.842031460190 Eh   |
          | GRADIENT NORM               1.007084108368 Eh/α |
          | HOMO-LUMO GAP               0.049406917139 eV   |
           -------------------------------------------------
########################################################################
[WARNING] Runtime exception occurred
-2- restart_readRestart: Dimension missmatch in restart file.
-1- restart_readRestart: Number of electron missmatch in restart file.
########################################################################

------------------------------------------------------------------------
 * finished run on 2025/05/05 at 17:12:55.862     
------------------------------------------------------------------------
 total:
 * wall-time:     0 d,  0 h,  0 min,  0.566 sec
 *  cpu-time:     0 d,  0 h,  0 min, 17.545 sec
 * ratio c/w:    30.991 speedup
 SCF:
 * wall-time:     0 d,  0 h,  0 min,  0.556 sec
 *  cpu-time:     0 d,  0 h,  0 min, 17.288 sec
 * ratio c/w:    31.113 speedup

