      -----------------------------------------------------------      
     |                   =====================                   |     
     |                           x T B                           |     
     |                   =====================                   |     
     |                         S. Grimme                         |     
     |          Mulliken Center for Theoretical Chemistry        |     
     |                    University of Bonn                     |     
      -----------------------------------------------------------      

   * xtb version 6.7.1 (edcfbbe) compiled by 'conda@afd1a870197c' on 2025-04-11

   xtb is free software: you can redistribute it and/or modify it under
   the terms of the GNU Lesser General Public License as published by
   the Free Software Foundation, either version 3 of the License, or
   (at your option) any later version.
   
   xtb is distributed in the hope that it will be useful,
   but WITHOUT ANY WARRANTY; without even the implied warranty of
   MERCHANTABILITY or FITNESS FOR A PARTICULAR PURPOSE.  See the
   GNU Lesser General Public License for more details.
   
   Cite this work as:
   * C. Bannwarth, E. Caldeweyher, S. Ehlert, A. Hansen, P. Pracht,
     J. Seibert, S. Spicher, S. Grimme, WIREs Comput. Mol. Sci., 2020, 11,
     e01493. DOI: 10.1002/wcms.1493
   
   for GFN2-xTB:
   * C. Bannwarth, S. Ehlert and S. Grimme., J. Chem. Theory Comput., 2019,
     15, 1652-1671. DOI: 10.1021/acs.jctc.8b01176
   for GFN1-xTB:
   * S. Grimme, C. Bannwarth, P. Shushkov, J. Chem. Theory Comput., 2017,
     13, 1989-2009. DOI: 10.1021/acs.jctc.7b00118
   for GFN0-xTB:
   * P. Pracht, E. Caldeweyher, S. Ehlert, S. Grimme, ChemRxiv, 2019, preprint.
     DOI: 10.26434/chemrxiv.8326202.v1
   for GFN-FF:
   * S. Spicher and S. Grimme, Angew. Chem. Int. Ed., 2020, 59, 15665-15673.
     DOI: 10.1002/anie.202004239
   
   for ALPB and GBSA implicit solvation:
   * S. Ehlert, M. Stahn, S. Spicher, S. Grimme, J. Chem. Theory Comput.,
     2021, 17, 4250-4261. DOI: 10.1021/acs.jctc.1c00471
   
   for ddCOSMO and CPCM-X implicit solvation:
   * M. Stahn, S. Ehlert, S. Grimme, J. Phys. Chem. A,
     2023, XX, XXXX-XXXX. DOI: 10.1021/acs.jpca.3c04382
   
   for DFT-D4:
   * E. Caldeweyher, C. Bannwarth and S. Grimme, J. Chem. Phys., 2017,
     147, 034112. DOI: 10.1063/1.4993215
   * E. Caldeweyher, S. Ehlert, A. Hansen, H. Neugebauer, S. Spicher,
     C. Bannwarth and S. Grimme, J. Chem. Phys., 2019, 150, 154122.
     DOI: 10.1063/1.5090222
   * E. Caldeweyher, J.-M. Mewes, S. Ehlert and S. Grimme, Phys. Chem. Chem. Phys.
     2020, 22, 8499-8512. DOI: 10.1039/D0CP00502A
   
   for sTDA-xTB:
   * S. Grimme and C. Bannwarth, J. Chem. Phys., 2016, 145, 054103.
     DOI: 10.1063/1.4959605
   
   in the mass-spec context:
   * V. Asgeirsson, C. Bauer and S. Grimme, Chem. Sci., 2017, 8, 4879.
     DOI: 10.1039/c7sc00601b
   * J. Koopman and S. Grimme, ACS Omega 2019, 4, 12, 15120-15133.
     DOI: 10.1021/acsomega.9b02011
   
   for metadynamics refer to:
   * S. Grimme, J. Chem. Theory Comput., 2019, 155, 2847-2862
     DOI: 10.1021/acs.jctc.9b00143
   
   for SPH calculations refer to:
   * S. Spicher and S. Grimme, J. Chem. Theory Comput., 2021, 17, 1701-1714
     DOI: 10.1021/acs.jctc.0c01306
   
   for ONIOM refer to:
   * C. Plett, A. Katbashev, S. Ehlert, S. Grimme, M. Bursch,
     Phys. Chem. Chem. Phys., 2023, 25, 17860-17868. DOI: 10.1039/D3CP02178E
   
   for DIPRO refer to:
   * J. Kohn, N. Gildemeister, S. Grimme, D. Fazzi, A. Hansen,
     J. Chem. Phys., 2023, just accepted.
   
   for PTB refer to:
   * S. Grimme, M. Mueller, A. Hansen, J. Chem. Phys., 2023, 158, 124111.
     DOI: 10.1063/5.0137838
   
   with help from (in alphabetical order)
   P. Atkinson, C. Bannwarth, F. Bohle, G. Brandenburg, E. Caldeweyher
   M. Checinski, S. Dohm, S. Ehlert, S. Ehrlich, I. Gerasimov, C. Hölzer
   A. Katbashev, J. Kohn, J. Koopman, C. Lavigne, S. Lehtola, F. März, M. Müller,
   F. Musil, H. Neugebauer, J. Pisarek, C. Plett, P. Pracht, F. Pultar,
   J. Seibert, P. Shushkov, S. Spicher, M. Stahn, M. Steiner, T. Strunk,
   J. Stückrath, T. Rose, and J. Unsleber
   
 * started run on 2025/05/05 at 16:51:50.752     
   ID    Z sym.   atoms
    1    7 N      1, 7, 15, 16, 22, 29, 30, 36, 44, 45, 57, 63, 66, 67, 71
    2    6 C      2, 3, 5, 8, 9, 11-14, 17, 18, 20, 23, 24, 26, 27, 31, 32,
                  34, 37, 38, 40-43, 46, 47, 49-55, 58, 59, 61, 62, 64, 65,
                  68, 69, 72, 73, 75-77
    3    8 O      4, 10, 19, 21, 25, 28, 33, 35, 39, 48, 56, 60, 70, 74
    4   16 S      6
    5    1 H      78-157

           -------------------------------------------------
          |                Calculation Setup                |
           -------------------------------------------------

          program call               : xtb /tmp/tmpgroqxmi0/HID/input.xyz --alpb ether --chrg 5 --input /tmp/tmpgroqxmi0/HID/constraints.inp --gfn 2
          hostname                   : fedora
          coordinate file            : /tmp/tmpgroqxmi0/HID/input.xyz
          omp threads                :                    32


molecular fragmentation (1/2 indicates fragments):
111111111111111222222222222222222222222222222222222222222222222222222222
222221111111111111111122222222222222222222222222222222222222222222222222
2222221112222
# atoms in fragment 1/2:    35   122
 fragment masses (1/2) :      234.34      876.96
CMA distance (Bohr)    :  14.799
constraining FC (au)   :  0.0500

           -------------------------------------------------
          |                 G F N 2 - x T B                 |
           -------------------------------------------------

        Reference                      10.1021/acs.jctc.8b01176
      * Hamiltonian:
        H0-scaling (s, p, d)           1.850000    2.230000    2.230000
        zeta-weighting                 0.500000
      * Dispersion:
        s8                             2.700000
        a1                             0.520000
        a2                             5.000000
        s9                             5.000000
      * Repulsion:
        kExp                           1.500000    1.000000
        rExp                           1.000000
      * Coulomb:
        alpha                          2.000000
        third order                    shell-resolved
        anisotropic                    true
        a3                             3.000000
        a5                             4.000000
        cn-shift                       1.200000
        cn-exp                         4.000000
        max-rad                        5.000000

      * Solvation model:               ALPB
        Solvent                        ether
        Parameter file                 internal GFN2-xTB/ALPB
        Dielectric constant                4.3300E+00
        Reference state                gsolv [1 M gas/solution]
        Free energy shift                  4.9534E-03 Eh       3.1083E+00 kcal/mol
        Temperature                        2.9815E+02 K
        Density                            7.1300E-01 kg/L
        Solvent mass                       7.4120E+01 g/mol
        Interaction kernel             P16
        Born radius scaling (c1)           1.5847E+00
        Born radii integrator          GBOBC
        Born offset                        0.0000E+00 a0       0.0000E+00 AA
        H-bond correction              true
        Ion screening                  false
        Surface tension                    1.0000E-05 Eh       1.5569E+01 dyn/cm
        Grid points                               230 per atom

          ...................................................
          :                      SETUP                      :
          :.................................................:
          :  # basis functions                 394          :
          :  # atomic orbitals                 393          :
          :  # shells                          235          :
          :  # electrons                       428          :
          :  max. iterations                   250          :
          :  Hamiltonian                  GFN2-xTB          :
          :  restarted?                      false          :
          :  GBSA solvation                   true          :
          :  PC potential                    false          :
          :  electronic temp.          300.0000000     K    :
          :  accuracy                    1.0000000          :
          :  -> integral cutoff          0.2500000E+02      :
          :  -> integral neglect         0.1000000E-07      :
          :  -> SCF convergence          0.1000000E-05 Eh   :
          :  -> wf. convergence          0.1000000E-03 e    :
          :  Broyden damping             0.4000000          :
          :  net charge                          5          :
          :  unpaired electrons                  0          :
          ...................................................

 iter      E             dE          RMSdq      gap      omega  full diag
   1   -244.5609602 -0.244561E+03  0.487E+00    0.11       0.0  T
   2   -242.5844056  0.197655E+01  0.415E+00    0.38       1.0  T
   3   -245.3494831 -0.276508E+01  0.305E+00    0.16       1.0  T
   4   -245.7099387 -0.360456E+00  0.226E+00    0.25       1.0  T
   5   -246.0314037 -0.321465E+00  0.234E+00    0.11       1.0  T
   6   -245.5433583  0.488045E+00  0.214E+00    0.13       1.0  T
   7   -246.0401969 -0.496839E+00  0.160E+00    0.28       1.0  T
   8   -246.1303000 -0.901030E-01  0.141E+00    0.15       1.0  T
   9   -246.2284336 -0.981337E-01  0.183E+00    0.14       1.0  T
  10   -246.2355510 -0.711737E-02  0.125E+00    0.03       1.0  T
  11   -246.1864483  0.491027E-01  0.128E+00    0.07       1.0  T
  12   -246.2157523 -0.293040E-01  0.120E+00    0.17       1.0  T
  13   -246.2532832 -0.375309E-01  0.107E+00    0.04       1.0  T
  14   -246.3357776 -0.824943E-01  0.954E-01    0.07       1.0  T
  15   -246.3979187 -0.621412E-01  0.828E-01    0.02       1.0  T
  16   -246.2380253  0.159893E+00  0.113E+00    0.10       1.0  T
  17   -246.2388070 -0.781638E-03  0.109E+00    0.15       1.0  T
  18   -245.9446484  0.294159E+00  0.153E+00    0.02       1.0  T
  19   -246.3582126 -0.413564E+00  0.805E-01    0.02       1.0  T
  20   -246.3906397 -0.324272E-01  0.666E-01    0.06       1.0  T
  21   -246.4271201 -0.364804E-01  0.532E-01    0.04       1.0  T
  22   -246.4309367 -0.381656E-02  0.488E-01    0.05       1.0  T
  23   -246.4610430 -0.301063E-01  0.332E-01    0.01       1.0  T
  24   -246.4705436 -0.950068E-02  0.316E-01    0.02       1.0  T
  25   -246.4717143 -0.117064E-02  0.265E-01    0.02       1.0  T
  26   -246.4761954 -0.448115E-02  0.227E-01    0.02       1.0  T
  27   -246.4780417 -0.184630E-02  0.189E-01    0.02       1.0  T
  28   -246.4846446 -0.660281E-02  0.761E-02    0.02       1.0  T
  29   -246.4849958 -0.351243E-03  0.645E-02    0.02       1.0  T
  30   -246.4841110  0.884773E-03  0.860E-02    0.02       1.0  T
  31   -246.4853399 -0.122889E-02  0.540E-02    0.02       1.0  T
  32   -246.4858477 -0.507761E-03  0.292E-02    0.02       1.0  T
  33   -246.4858518 -0.415747E-05  0.302E-02    0.02       1.0  T
  34   -246.4860742 -0.222330E-03  0.632E-03    0.02       1.3  T
  35   -246.4860796 -0.548319E-05  0.437E-03    0.02       1.8  T
  36   -246.4860794  0.240877E-06  0.395E-03    0.01       2.0  T
  37   -246.4860832 -0.381041E-05  0.372E-04    0.01      21.4  T
  38   -246.4860831  0.109046E-06  0.699E-04    0.01      11.4  T
  39   -246.4860832 -0.129591E-06  0.175E-04    0.01      45.6  T

   *** convergence criteria satisfied after 39 iterations ***

         #    Occupation            Energy/Eh            Energy/eV
      -------------------------------------------------------------
         1        2.0000           -0.8365010             -22.7624
       ...           ...                  ...                  ...
       208        1.9961           -0.4952775             -13.4772
       209        1.9667           -0.4932381             -13.4217
       210        1.9160           -0.4923337             -13.3971
       211        1.7390           -0.4911640             -13.3653
       212        1.6099           -0.4907092             -13.3529
       213        1.5375           -0.4905038             -13.3473
       214        1.5107           -0.4904335             -13.3454 (HOMO)
       215        1.2694           -0.4898873             -13.3305 (LUMO)
       216        0.4567           -0.4882056             -13.2848
       217                         -0.3792389             -10.3196
       218                         -0.3756306             -10.2214
       219                         -0.3726688             -10.1408
       ...                                ...                  ...
       393                          0.5829088              15.8618
      -------------------------------------------------------------
                  HL-Gap            0.0005462 Eh            0.0149 eV
             Fermi-level           -0.4893624 Eh          -13.3162 eV

 SCC (total)                   0 d,  0 h,  0 min,  1.076 sec
 SCC setup                      ...        0 min,  0.002 sec (  0.171%)
 Dispersion                     ...        0 min,  0.004 sec (  0.381%)
 classical contributions        ...        0 min,  0.000 sec (  0.026%)
 integral evaluation            ...        0 min,  0.009 sec (  0.855%)
 iterations                     ...        0 min,  1.036 sec ( 96.294%)
 molecular gradient             ...        0 min,  0.023 sec (  2.127%)
 printout                       ...        0 min,  0.002 sec (  0.144%)

         :::::::::::::::::::::::::::::::::::::::::::::::::::::
         ::                     SUMMARY                     ::
         :::::::::::::::::::::::::::::::::::::::::::::::::::::
         :: total energy            -243.407057261826 Eh    ::
         :: total w/o Gsasa/hb      -243.322156219021 Eh    ::
         :: gradient norm              0.313744523844 Eh/a0 ::
         :: HOMO-LUMO gap              0.014862871934 eV    ::
         ::.................................................::
         :: SCC energy              -246.471848805681 Eh    ::
         :: -> isotropic ES            1.493339450845 Eh    ::
         :: -> anisotropic ES         -0.060445739743 Eh    ::
         :: -> anisotropic XC          0.082653969822 Eh    ::
         :: -> dispersion             -0.181846251513 Eh    ::
         :: -> Gsolv                  -0.873404529084 Eh    ::
         ::    -> Gelec               -0.788503486278 Eh    ::
         ::    -> Gsasa               -0.057805070426 Eh    ::
         ::    -> Ghb                 -0.032049409957 Eh    ::
         ::    -> Gshift               0.004953437577 Eh    ::
         :: repulsion energy           3.064791543855 Eh    ::
         :: add. restraining           0.000000000000 Eh    ::
         :: total charge               5.000000000000 e     ::
         :::::::::::::::::::::::::::::::::::::::::::::::::::::

           -------------------------------------------------
          |                Property Printout                |
           -------------------------------------------------

    * Orbital Energies and Occupations

         #    Occupation            Energy/Eh            Energy/eV
      -------------------------------------------------------------
         1        2.0000           -0.8365010             -22.7624
       ...           ...                  ...                  ...
       202        2.0000           -0.5075330             -13.8107
       203        2.0000           -0.5066145             -13.7857
       204        2.0000           -0.5028718             -13.6838
       205        1.9999           -0.4987965             -13.5729
       206        1.9996           -0.4974868             -13.5373
       207        1.9984           -0.4961607             -13.5012
       208        1.9961           -0.4952775             -13.4772
       209        1.9667           -0.4932381             -13.4217
       210        1.9160           -0.4923337             -13.3971
       211        1.7390           -0.4911640             -13.3653
       212        1.6099           -0.4907092             -13.3529
       213        1.5375           -0.4905038             -13.3473
       214        1.5107           -0.4904335             -13.3454 (HOMO)
       215        1.2694           -0.4898873             -13.3305 (LUMO)
       216        0.4567           -0.4882056             -13.2848
       217                         -0.3792389             -10.3196
       218                         -0.3756306             -10.2214
       219                         -0.3726688             -10.1408
       220                         -0.3405624              -9.2672
       221                         -0.3349456              -9.1143
       222                         -0.3337355              -9.0814
       223                         -0.3331688              -9.0660
       224                         -0.3260784              -8.8730
       225                         -0.3235287              -8.8037
       ...                                ...                  ...
       393                          0.5829088              15.8618
      -------------------------------------------------------------
                  HL-Gap            0.0005462 Eh            0.0149 eV
             Fermi-level           -0.4893624 Eh          -13.3162 eV

     #   Z          covCN         q      C6AA      α(0)
     1   7 N        2.629    -0.292    27.540     7.794
     2   6 C        3.803     0.009    20.417     6.433
     3   6 C        2.756     0.264    22.543     7.775
     4   8 O        0.859    -0.459    22.887     6.414
     5   6 C        3.803    -0.054    21.546     6.608
     6  16 S        1.907    -0.012   141.558    20.025
     7   7 N        2.688    -0.147    24.182     7.304
     8   6 C        3.795     0.017    20.301     6.416
     9   6 C        2.763     0.196    23.813     7.992
    10   8 O        0.856    -0.338    20.472     6.066
    11   6 C        3.811    -0.091    22.235     6.712
    12   6 C        3.809    -0.097    22.339     6.728
    13   6 C        3.808    -0.105    22.489     6.751
    14   6 C        3.735    -0.058    21.711     6.650
    15   7 N        3.485    -0.166    24.584     7.364
    16   7 N        2.629    -0.251    26.529     7.650
    17   6 C        3.783     0.013    20.373     6.429
    18   6 C        2.763     0.194    23.848     7.997
    19   8 O        0.856    -0.298    19.739     5.957
    20   6 C        3.683     0.055    19.851     6.380
    21   8 O        1.654    -0.433    21.497     6.259
    22   7 N        2.630    -0.290    27.482     7.786
    23   6 C        3.789     0.027    20.138     6.391
    24   6 C        2.752     0.264    22.551     7.776
    25   8 O        0.858    -0.475    23.247     6.464
    26   6 C        3.813    -0.112    22.630     6.771
    27   6 C        2.743     0.274    22.367     7.744
    28   8 O        0.859    -0.490    23.558     6.508
    29   7 N        2.640    -0.279    27.204     7.746
    30   7 N        2.688    -0.168    24.632     7.371
    31   6 C        3.794     0.009    20.441     6.438
    32   6 C        2.754     0.272    22.399     7.750
    33   8 O        0.858    -0.477    23.273     6.468
    34   6 C        3.682     0.057    19.818     6.375
    35   8 O        1.653    -0.465    22.147     6.353
    36   7 N        2.689    -0.158    24.413     7.338
    37   6 C        3.798     0.017    20.286     6.413
    38   6 C        2.756     0.276    22.329     7.738
    39   8 O        0.858    -0.445    22.593     6.373
    40   6 C        3.810    -0.088    22.173     6.703
    41   6 C        3.807    -0.089    22.192     6.706
    42   6 C        3.806    -0.098    22.368     6.733
    43   6 C        3.734    -0.060    21.749     6.656
    44   7 N        3.485    -0.163    24.516     7.354
    45   7 N        2.689    -0.161    24.485     7.349
    46   6 C        3.798     0.015    20.321     6.419
    47   6 C        2.750     0.264    22.546     7.775
    48   8 O        0.858    -0.465    23.013     6.432
    49   6 C        3.814    -0.088    22.164     6.701
    50   6 C        2.963     0.029    27.347     8.578
    51   6 C        2.928    -0.038    28.939     8.822
    52   6 C        2.928    -0.038    28.939     8.822
    53   6 C        2.919    -0.069    29.713     8.939
    54   6 C        2.918    -0.046    29.138     8.852
    55   6 C        2.848     0.170    24.331     8.084
    56   8 O        1.661    -0.399    20.832     6.161
    57   7 N        2.686    -0.160    24.458     7.345
    58   6 C        3.791     0.011    20.409     6.434
    59   6 C        2.749     0.268    22.473     7.762
    60   8 O        0.859    -0.474    23.206     6.459
    61   6 C        3.810    -0.090    22.209     6.708
    62   6 C        3.087     0.037    27.070     8.529
    63   7 N        2.848    -0.041    22.029     6.971
    64   6 C        3.057     0.008    27.796     8.646
    65   6 C        2.106     0.105    28.266     8.591
    66   7 N        1.981    -0.160    25.231     7.449
    67   7 N        2.684    -0.154    24.338     7.327
    68   6 C        3.745    -0.043    21.421     6.602
    69   6 C        2.749     0.278    22.288     7.730
    70   8 O        0.859    -0.438    22.449     6.353
    71   7 N        2.685    -0.129    23.798     7.245
    72   6 C        3.792     0.026    20.145     6.392
    73   6 C        2.764     0.211    23.539     7.945
    74   8 O        0.856    -0.266    19.176     5.871
    75   6 C        3.852    -0.020    20.894     6.501
    76   6 C        3.759    -0.148    23.403     6.897
    77   6 C        3.757    -0.144    23.328     6.886
    78   1 H        0.860     0.220     1.008     1.573
    79   1 H        0.860     0.206     1.077     1.626
    80   1 H        0.927     0.117     1.635     2.000
    81   1 H        0.927     0.130     1.538     1.939
    82   1 H        0.927     0.124     1.580     1.966
    83   1 H        0.921     0.228     0.966     1.537
    84   1 H        0.861     0.225     0.986     1.555
    85   1 H        0.927     0.118     1.626     1.994
    86   1 H        0.929     0.089     1.887     2.148
    87   1 H        0.927     0.088     1.902     2.157
    88   1 H        0.927     0.075     2.031     2.229
    89   1 H        0.927     0.066     2.129     2.282
    90   1 H        0.926     0.077     2.010     2.217
    91   1 H        0.927     0.094     1.838     2.120
    92   1 H        0.927     0.087     1.911     2.162
    93   1 H        0.927     0.123     1.585     1.969
    94   1 H        0.927     0.120     1.611     1.985
    95   1 H        0.860     0.245     0.903     1.489
    96   1 H        0.860     0.211     1.052     1.607
    97   1 H        0.927     0.120     1.616     1.988
    98   1 H        0.929     0.117     1.641     2.003
    99   1 H        0.927     0.091     1.866     2.136
   100   1 H        0.927     0.104     1.749     2.068
   101   1 H        0.804     0.338     0.618     1.234
   102   1 H        0.860     0.196     1.127     1.663
   103   1 H        0.860     0.213     1.044     1.600
   104   1 H        0.927     0.070     2.089     2.260
   105   1 H        0.927     0.100     1.781     2.087
   106   1 H        0.927     0.095     1.834     2.118
   107   1 H        0.861     0.235     0.944     1.522
   108   1 H        0.861     0.246     0.899     1.485
   109   1 H        0.861     0.212     1.047     1.603
   110   1 H        0.927     0.103     1.762     2.076
   111   1 H        0.927     0.067     2.123     2.279
   112   1 H        0.927     0.096     1.822     2.111
   113   1 H        0.804     0.325     0.650     1.267
   114   1 H        0.861     0.234     0.949     1.526
   115   1 H        0.927     0.108     1.711     2.045
   116   1 H        0.927     0.069     2.093     2.263
   117   1 H        0.927     0.099     1.793     2.094
   118   1 H        0.927     0.069     2.099     2.265
   119   1 H        0.927     0.060     2.195     2.317
   120   1 H        0.927     0.077     2.012     2.218
   121   1 H        0.927     0.094     1.841     2.122
   122   1 H        0.927     0.124     1.582     1.967
   123   1 H        0.927     0.124     1.583     1.967
   124   1 H        0.861     0.227     0.976     1.548
   125   1 H        0.927     0.120     1.614     1.986
   126   1 H        0.927     0.104     1.748     2.068
   127   1 H        0.927     0.092     1.858     2.132
   128   1 H        0.929     0.081     1.963     2.191
   129   1 H        0.929     0.083     1.949     2.183
   130   1 H        0.929     0.082     1.957     2.188
   131   1 H        0.929     0.093     1.849     2.126
   132   1 H        0.807     0.364     0.557     1.172
   133   1 H        0.861     0.215     1.031     1.590
   134   1 H        0.927     0.106     1.727     2.055
   135   1 H        0.926     0.115     1.657     2.013
   136   1 H        0.927     0.116     1.643     2.005
   137   1 H        0.929     0.109     1.702     2.040
   138   1 H        0.861     0.225     0.989     1.558
   139   1 H        0.927     0.120     1.613     1.986
   140   1 H        0.927     0.112     1.682     2.028
   141   1 H        0.861     0.249     0.888     1.476
   142   1 H        0.927     0.144     1.434     1.873
   143   1 H        0.929     0.137     1.484     1.905
   144   1 H        0.927     0.081     1.970     2.195
   145   1 H        0.927     0.079     1.993     2.207
   146   1 H        0.927     0.063     2.158     2.297
   147   1 H        0.926     0.078     2.002     2.213
   148   1 H        0.927     0.075     2.027     2.226
   149   1 H        0.927     0.063     2.164     2.300
   150   1 H        0.927     0.054     2.270     2.356
   151   1 H        0.860     0.300     0.712     1.322
   152   1 H        0.860     0.292     0.738     1.345
   153   1 H        0.860     0.304     0.702     1.313
   154   1 H        0.860     0.302     0.706     1.317
   155   1 H        0.860     0.283     0.767     1.372
   156   1 H        0.860     0.307     0.694     1.305
   157   1 H        0.858     0.254     0.867     1.458

 Mol. C6AA /au·bohr⁶  :     224222.437056
 Mol. C8AA /au·bohr⁸  :    5164561.896324
 Mol. α(0) /au        :        713.419794


Wiberg/Mayer (AO) data.
largest (>0.10) Wiberg bond orders for each atom

 ---------------------------------------------------------------------------
     #   Z sym  total        # sym  WBO       # sym  WBO       # sym  WBO
 ---------------------------------------------------------------------------
     1   7 N    3.040 --     2 C    1.042    78 H    0.933    79 H    0.931
     2   6 C    3.930 --     1 N    1.042    80 H    0.948     3 C    0.928
                             5 C    0.923
     3   6 C    3.955 --     4 O    1.628     7 N    1.325     2 C    0.928
     4   8 O    1.959 --     3 C    1.628     7 N    0.201
     5   6 C    3.905 --     6 S    1.029    82 H    0.956    81 H    0.928
                             2 C    0.923
     6  16 S    2.138 --     5 C    1.029    83 H    0.923
     7   7 N    3.489 --     3 C    1.325     8 C    0.971    84 H    0.911
                             4 O    0.201
     8   6 C    3.948 --     7 N    0.971     9 C    0.968    11 C    0.965
                            85 H    0.939
     9   6 C    3.889 --    10 O    1.912     8 C    0.968    86 H    0.945
    10   8 O    2.055 --     9 C    1.912
    11   6 C    3.978 --    12 C    1.002    88 H    0.972    87 H    0.967
                             8 C    0.965
    12   6 C    3.991 --    13 C    1.004    11 C    1.002    89 H    0.976
                            90 H    0.969
    13   6 C    3.982 --    14 C    1.013    12 C    1.004    92 H    0.969
                            91 H    0.963
    14   6 C    3.904 --    13 C    1.013    94 H    0.967    93 H    0.964
                            15 N    0.939
    15   7 N    3.653 --    14 C    0.939   151 H    0.898   152 H    0.895
                           153 H    0.894
    16   7 N    2.968 --    17 C    1.046    96 H    0.934    95 H    0.916
    17   6 C    3.916 --    16 N    1.046    18 C    0.953    97 H    0.943
                            20 C    0.902
    18   6 C    3.868 --    19 O    1.930    17 C    0.953    98 H    0.931
    19   8 O    2.066 --    18 C    1.930
    20   6 C    3.876 --    21 O    1.010   100 H    0.959    99 H    0.949
                            17 C    0.902
    21   8 O    1.983 --    20 C    1.010   101 H    0.866
    22   7 N    2.944 --    23 C    1.020   102 H    0.944   103 H    0.935
    23   6 C    3.956 --    22 N    1.020    26 C    0.961    24 C    0.944
                           104 H    0.928
    24   6 C    3.946 --    25 O    1.606    30 N    1.317    23 C    0.944
    25   8 O    1.932 --    24 C    1.606    30 N    0.194
    26   6 C    3.978 --   105 H    0.965    27 C    0.963    23 C    0.961
                           106 H    0.957
    27   6 C    3.949 --    28 O    1.613    29 N    1.343    26 C    0.963
    28   8 O    1.944 --    27 C    1.613    29 N    0.203
    29   7 N    3.428 --    27 C    1.343   107 H    0.927   108 H    0.919
                            28 O    0.203
    30   7 N    3.484 --    24 C    1.317    31 C    0.974   109 H    0.919
                            25 O    0.194
    31   6 C    3.952 --    30 N    0.974    34 C    0.965   110 H    0.942
                            32 C    0.937
    32   6 C    3.950 --    33 O    1.615    36 N    1.319    31 C    0.937
    33   8 O    1.926 --    32 C    1.615    36 N    0.187
    34   6 C    3.946 --    35 O    1.006    31 C    0.965   112 H    0.965
                           111 H    0.965
    35   8 O    1.944 --    34 C    1.006   113 H    0.876
    36   7 N    3.464 --    32 C    1.319    37 C    0.977   114 H    0.890
                            33 O    0.187
    37   6 C    3.922 --    36 N    0.977    40 C    0.973   115 H    0.942
                            38 C    0.923
    38   6 C    3.934 --    39 O    1.639    45 N    1.298    37 C    0.923
    39   8 O    1.932 --    38 C    1.639    45 N    0.185
    40   6 C    3.972 --    41 C    1.004    37 C    0.973   116 H    0.972
                           117 H    0.956
    41   6 C    3.990 --    42 C    1.005    40 C    1.004   119 H    0.975
                           118 H    0.974
    42   6 C    3.983 --    43 C    1.010    41 C    1.005   120 H    0.970
                           121 H    0.964
    43   6 C    3.902 --    42 C    1.010   122 H    0.966   123 H    0.964
                            44 N    0.940
    44   7 N    3.655 --    43 C    0.940   155 H    0.902   154 H    0.896
                           156 H    0.894
    45   7 N    3.459 --    38 C    1.298    46 C    0.980   124 H    0.905
                            39 O    0.185
    46   6 C    3.932 --    45 N    0.980    49 C    0.957    47 C    0.933
                           125 H    0.929
    47   6 C    3.949 --    48 O    1.621    57 N    1.314    46 C    0.933
    48   8 O    1.948 --    47 C    1.621    57 N    0.195
    49   6 C    3.965 --    50 C    1.020   127 H    0.968    46 C    0.957
                           126 H    0.945
    50   6 C    3.851 --    52 C    1.360    51 C    1.357    49 C    1.020
    51   6 C    3.953 --    53 C    1.484    50 C    1.357   128 H    0.967
    52   6 C    3.963 --    54 C    1.485    50 C    1.360   129 H    0.966
    53   6 C    3.934 --    51 C    1.484    55 C    1.319   130 H    0.965
    54   6 C    3.921 --    52 C    1.485    55 C    1.312   131 H    0.964
    55   6 C    3.824 --    53 C    1.319    54 C    1.312    56 O    1.105
    56   8 O    2.066 --    55 C    1.105   132 H    0.847
    57   7 N    3.482 --    47 C    1.314    58 C    0.974   133 H    0.912
                            48 O    0.195
    58   6 C    3.956 --    57 N    0.974    61 C    0.964   134 H    0.939
                            59 C    0.937
    59   6 C    3.954 --    60 O    1.631    67 N    1.311    58 C    0.937
    60   8 O    1.946 --    59 C    1.631    67 N    0.193
    61   6 C    3.975 --    62 C    1.023    58 C    0.964   135 H    0.947
                           136 H    0.946
    62   6 C    3.898 --    64 C    1.548    63 N    1.154    61 C    1.023
                            65 C    0.112
    63   7 N    3.575 --    65 C    1.358    62 C    1.154   157 H    0.873
    64   6 C    3.888 --    62 C    1.548    66 N    1.206   137 H    0.962
    65   6 C    3.432 --    66 N    1.781    63 N    1.358    62 C    0.112
    66   7 N    3.173 --    65 C    1.781    64 C    1.206
    67   7 N    3.470 --    59 C    1.311    68 C    0.988   138 H    0.915
                            60 O    0.193
    68   6 C    3.944 --    67 N    0.988   139 H    0.952    69 C    0.949
                           140 H    0.947
    69   6 C    3.940 --    70 O    1.653    71 N    1.281    68 C    0.949
    70   8 O    1.924 --    69 C    1.653    71 N    0.156
    71   7 N    3.417 --    69 C    1.281    72 C    0.999   141 H    0.898
                            70 O    0.156
    72   6 C    3.876 --    71 N    0.999    75 C    0.934    73 C    0.933
                           142 H    0.911
    73   6 C    3.827 --    74 O    1.923    72 C    0.933   143 H    0.906
    74   8 O    2.051 --    73 C    1.923
    75   6 C    3.955 --    77 C    1.004    76 C    0.993   144 H    0.962
                            72 C    0.934
    76   6 C    3.964 --    75 C    0.993   146 H    0.983   145 H    0.977
                           147 H    0.970
    77   6 C    3.983 --    75 C    1.004   150 H    0.981   149 H    0.978
                           148 H    0.976
    78   1 H    0.947 --     1 N    0.933
    79   1 H    0.955 --     1 N    0.931
    80   1 H    0.983 --     2 C    0.948
    81   1 H    0.961 --     5 C    0.928
    82   1 H    0.985 --     5 C    0.956
    83   1 H    0.948 --     6 S    0.923
    84   1 H    0.949 --     7 N    0.911
    85   1 H    0.984 --     8 C    0.939
    86   1 H    0.987 --     9 C    0.945
    87   1 H    0.991 --    11 C    0.967
    88   1 H    0.994 --    11 C    0.972
    89   1 H    0.996 --    12 C    0.976
    90   1 H    0.994 --    12 C    0.969
    91   1 H    0.991 --    13 C    0.963
    92   1 H    0.991 --    13 C    0.969
    93   1 H    0.985 --    14 C    0.964
    94   1 H    0.985 --    14 C    0.967
    95   1 H    0.931 --    16 N    0.916
    96   1 H    0.953 --    16 N    0.934
    97   1 H    0.982 --    17 C    0.943
    98   1 H    0.972 --    18 C    0.931
    99   1 H    0.978 --    20 C    0.949
   100   1 H    0.989 --    20 C    0.959
   101   1 H    0.885 --    21 O    0.866
   102   1 H    0.958 --    22 N    0.944
   103   1 H    0.949 --    22 N    0.935
   104   1 H    0.953 --    23 C    0.928
   105   1 H    0.986 --    26 C    0.965
   106   1 H    0.990 --    26 C    0.957
   107   1 H    0.945 --    29 N    0.927
   108   1 H    0.939 --    29 N    0.919
   109   1 H    0.955 --    30 N    0.919
   110   1 H    0.989 --    31 C    0.942
   111   1 H    0.992 --    34 C    0.965
   112   1 H    0.990 --    34 C    0.965
   113   1 H    0.894 --    35 O    0.876
   114   1 H    0.945 --    36 N    0.890
   115   1 H    0.981 --    37 C    0.942
   116   1 H    0.993 --    40 C    0.972
   117   1 H    0.980 --    40 C    0.956
   118   1 H    0.995 --    41 C    0.974
   119   1 H    0.994 --    41 C    0.975
   120   1 H    0.994 --    42 C    0.970
   121   1 H    0.991 --    42 C    0.964
   122   1 H    0.984 --    43 C    0.966
   123   1 H    0.985 --    43 C    0.964
   124   1 H    0.948 --    45 N    0.905
   125   1 H    0.985 --    46 C    0.929
   126   1 H    0.976 --    49 C    0.945
   127   1 H    0.991 --    49 C    0.968
   128   1 H    0.993 --    51 C    0.967
   129   1 H    0.993 --    52 C    0.966
   130   1 H    0.993 --    53 C    0.965
   131   1 H    0.991 --    54 C    0.964
   132   1 H    0.867 --    56 O    0.847
   133   1 H    0.954 --    57 N    0.912
   134   1 H    0.987 --    58 C    0.939
   135   1 H    0.982 --    61 C    0.947
   136   1 H    0.982 --    61 C    0.946
   137   1 H    0.988 --    64 C    0.962
   138   1 H    0.949 --    67 N    0.915
   139   1 H    0.983 --    68 C    0.952
   140   1 H    0.987 --    68 C    0.947
   141   1 H    0.937 --    71 N    0.898
   142   1 H    0.963 --    72 C    0.911
   143   1 H    0.929 --    73 C    0.906
   144   1 H    0.992 --    75 C    0.962
   145   1 H    0.993 --    76 C    0.977
   146   1 H    0.996 --    76 C    0.983
   147   1 H    0.989 --    76 C    0.970
   148   1 H    0.994 --    77 C    0.976
   149   1 H    0.995 --    77 C    0.978
   150   1 H    0.994 --    77 C    0.981
   151   1 H    0.910 --    15 N    0.898
   152   1 H    0.915 --    15 N    0.895
   153   1 H    0.908 --    15 N    0.894
   154   1 H    0.909 --    44 N    0.896
   155   1 H    0.920 --    44 N    0.902
   156   1 H    0.906 --    44 N    0.894
   157   1 H    0.935 --    63 N    0.873
 ---------------------------------------------------------------------------

Topologies differ in total number of bonds
Writing topology from bond orders to xtbtopo.mol

molecular dipole:
                 x           y           z       tot (Debye)
 q only:     -128.957     -19.658    -171.396
   full:     -127.555     -18.750    -170.956     544.241
molecular quadrupole (traceless):
                xx          xy          yy          xz          yz          zz
 q only:      226.930     939.426   -4574.301    6935.135    1066.913    4347.371
  q+dip:      154.512     922.847   -4503.509    6840.756    1017.557    4348.997
   full:      155.993     922.191   -4505.108    6840.484    1016.450    4349.115


           -------------------------------------------------
          | TOTAL ENERGY             -243.407057261826 Eh   |
          | GRADIENT NORM               0.313744523844 Eh/α |
          | HOMO-LUMO GAP               0.014862871934 eV   |
           -------------------------------------------------
########################################################################
[WARNING] Runtime exception occurred
-2- restart_readRestart: Dimension missmatch in restart file.
-1- restart_readRestart: Number of electron missmatch in restart file.
########################################################################

------------------------------------------------------------------------
 * finished run on 2025/05/05 at 16:51:51.842     
------------------------------------------------------------------------
 total:
 * wall-time:     0 d,  0 h,  0 min,  1.090 sec
 *  cpu-time:     0 d,  0 h,  0 min, 31.466 sec
 * ratio c/w:    28.859 speedup
 SCF:
 * wall-time:     0 d,  0 h,  0 min,  1.077 sec
 *  cpu-time:     0 d,  0 h,  0 min, 31.133 sec
 * ratio c/w:    28.914 speedup

