      -----------------------------------------------------------      
     |                   =====================                   |     
     |                           x T B                           |     
     |                   =====================                   |     
     |                         S. Grimme                         |     
     |          Mulliken Center for Theoretical Chemistry        |     
     |                    University of Bonn                     |     
      -----------------------------------------------------------      

   * xtb version 6.7.1 (edcfbbe) compiled by 'conda@afd1a870197c' on 2025-04-11

   xtb is free software: you can redistribute it and/or modify it under
   the terms of the GNU Lesser General Public License as published by
   the Free Software Foundation, either version 3 of the License, or
   (at your option) any later version.
   
   xtb is distributed in the hope that it will be useful,
   but WITHOUT ANY WARRANTY; without even the implied warranty of
   MERCHANTABILITY or FITNESS FOR A PARTICULAR PURPOSE.  See the
   GNU Lesser General Public License for more details.
   
   Cite this work as:
   * C. Bannwarth, E. Caldeweyher, S. Ehlert, A. Hansen, P. Pracht,
     J. Seibert, S. Spicher, S. Grimme, WIREs Comput. Mol. Sci., 2020, 11,
     e01493. DOI: 10.1002/wcms.1493
   
   for GFN2-xTB:
   * C. Bannwarth, S. Ehlert and S. Grimme., J. Chem. Theory Comput., 2019,
     15, 1652-1671. DOI: 10.1021/acs.jctc.8b01176
   for GFN1-xTB:
   * S. Grimme, C. Bannwarth, P. Shushkov, J. Chem. Theory Comput., 2017,
     13, 1989-2009. DOI: 10.1021/acs.jctc.7b00118
   for GFN0-xTB:
   * P. Pracht, E. Caldeweyher, S. Ehlert, S. Grimme, ChemRxiv, 2019, preprint.
     DOI: 10.26434/chemrxiv.8326202.v1
   for GFN-FF:
   * S. Spicher and S. Grimme, Angew. Chem. Int. Ed., 2020, 59, 15665-15673.
     DOI: 10.1002/anie.202004239
   
   for ALPB and GBSA implicit solvation:
   * S. Ehlert, M. Stahn, S. Spicher, S. Grimme, J. Chem. Theory Comput.,
     2021, 17, 4250-4261. DOI: 10.1021/acs.jctc.1c00471
   
   for ddCOSMO and CPCM-X implicit solvation:
   * M. Stahn, S. Ehlert, S. Grimme, J. Phys. Chem. A,
     2023, XX, XXXX-XXXX. DOI: 10.1021/acs.jpca.3c04382
   
   for DFT-D4:
   * E. Caldeweyher, C. Bannwarth and S. Grimme, J. Chem. Phys., 2017,
     147, 034112. DOI: 10.1063/1.4993215
   * E. Caldeweyher, S. Ehlert, A. Hansen, H. Neugebauer, S. Spicher,
     C. Bannwarth and S. Grimme, J. Chem. Phys., 2019, 150, 154122.
     DOI: 10.1063/1.5090222
   * E. Caldeweyher, J.-M. Mewes, S. Ehlert and S. Grimme, Phys. Chem. Chem. Phys.
     2020, 22, 8499-8512. DOI: 10.1039/D0CP00502A
   
   for sTDA-xTB:
   * S. Grimme and C. Bannwarth, J. Chem. Phys., 2016, 145, 054103.
     DOI: 10.1063/1.4959605
   
   in the mass-spec context:
   * V. Asgeirsson, C. Bauer and S. Grimme, Chem. Sci., 2017, 8, 4879.
     DOI: 10.1039/c7sc00601b
   * J. Koopman and S. Grimme, ACS Omega 2019, 4, 12, 15120-15133.
     DOI: 10.1021/acsomega.9b02011
   
   for metadynamics refer to:
   * S. Grimme, J. Chem. Theory Comput., 2019, 155, 2847-2862
     DOI: 10.1021/acs.jctc.9b00143
   
   for SPH calculations refer to:
   * S. Spicher and S. Grimme, J. Chem. Theory Comput., 2021, 17, 1701-1714
     DOI: 10.1021/acs.jctc.0c01306
   
   for ONIOM refer to:
   * C. Plett, A. Katbashev, S. Ehlert, S. Grimme, M. Bursch,
     Phys. Chem. Chem. Phys., 2023, 25, 17860-17868. DOI: 10.1039/D3CP02178E
   
   for DIPRO refer to:
   * J. Kohn, N. Gildemeister, S. Grimme, D. Fazzi, A. Hansen,
     J. Chem. Phys., 2023, just accepted.
   
   for PTB refer to:
   * S. Grimme, M. Mueller, A. Hansen, J. Chem. Phys., 2023, 158, 124111.
     DOI: 10.1063/5.0137838
   
   with help from (in alphabetical order)
   P. Atkinson, C. Bannwarth, F. Bohle, G. Brandenburg, E. Caldeweyher
   M. Checinski, S. Dohm, S. Ehlert, S. Ehrlich, I. Gerasimov, C. Hölzer
   A. Katbashev, J. Kohn, J. Koopman, C. Lavigne, S. Lehtola, F. März, M. Müller,
   F. Musil, H. Neugebauer, J. Pisarek, C. Plett, P. Pracht, F. Pultar,
   J. Seibert, P. Shushkov, S. Spicher, M. Stahn, M. Steiner, T. Strunk,
   J. Stückrath, T. Rose, and J. Unsleber
   
 * started run on 2025/05/05 at 16:51:51.859     
   ID    Z sym.   atoms
    1    7 N      1, 7, 15, 16, 22, 29, 30, 36, 44, 45, 57, 63, 66, 67, 71
    2    6 C      2, 3, 5, 8, 9, 11-14, 17, 18, 20, 23, 24, 26, 27, 31, 32,
                  34, 37, 38, 40-43, 46, 47, 49-55, 58, 59, 61, 62, 64, 65,
                  68, 69, 72, 73, 75-77
    3    8 O      4, 10, 19, 21, 25, 28, 33, 35, 39, 48, 56, 60, 70, 74
    4   16 S      6
    5    1 H      78-157

           -------------------------------------------------
          |                Calculation Setup                |
           -------------------------------------------------

          program call               : xtb /tmp/tmpgroqxmi0/HIE/input.xyz --alpb ether --chrg 5 --input /tmp/tmpgroqxmi0/HIE/constraints.inp --gfn 2
          hostname                   : fedora
          coordinate file            : /tmp/tmpgroqxmi0/HIE/input.xyz
          omp threads                :                    32


molecular fragmentation (1/2 indicates fragments):
111111111111111222222222222222222222222222222222222222222222222222222222
222221111111111111111122222222222222222222222222222222222222222222222222
2222221112222
# atoms in fragment 1/2:    35   122
 fragment masses (1/2) :      234.34      876.96
CMA distance (Bohr)    :  14.796
constraining FC (au)   :  0.0500

           -------------------------------------------------
          |                 G F N 2 - x T B                 |
           -------------------------------------------------

        Reference                      10.1021/acs.jctc.8b01176
      * Hamiltonian:
        H0-scaling (s, p, d)           1.850000    2.230000    2.230000
        zeta-weighting                 0.500000
      * Dispersion:
        s8                             2.700000
        a1                             0.520000
        a2                             5.000000
        s9                             5.000000
      * Repulsion:
        kExp                           1.500000    1.000000
        rExp                           1.000000
      * Coulomb:
        alpha                          2.000000
        third order                    shell-resolved
        anisotropic                    true
        a3                             3.000000
        a5                             4.000000
        cn-shift                       1.200000
        cn-exp                         4.000000
        max-rad                        5.000000

      * Solvation model:               ALPB
        Solvent                        ether
        Parameter file                 internal GFN2-xTB/ALPB
        Dielectric constant                4.3300E+00
        Reference state                gsolv [1 M gas/solution]
        Free energy shift                  4.9534E-03 Eh       3.1083E+00 kcal/mol
        Temperature                        2.9815E+02 K
        Density                            7.1300E-01 kg/L
        Solvent mass                       7.4120E+01 g/mol
        Interaction kernel             P16
        Born radius scaling (c1)           1.5847E+00
        Born radii integrator          GBOBC
        Born offset                        0.0000E+00 a0       0.0000E+00 AA
        H-bond correction              true
        Ion screening                  false
        Surface tension                    1.0000E-05 Eh       1.5569E+01 dyn/cm
        Grid points                               230 per atom

          ...................................................
          :                      SETUP                      :
          :.................................................:
          :  # basis functions                 394          :
          :  # atomic orbitals                 393          :
          :  # shells                          235          :
          :  # electrons                       428          :
          :  max. iterations                   250          :
          :  Hamiltonian                  GFN2-xTB          :
          :  restarted?                      false          :
          :  GBSA solvation                   true          :
          :  PC potential                    false          :
          :  electronic temp.          300.0000000     K    :
          :  accuracy                    1.0000000          :
          :  -> integral cutoff          0.2500000E+02      :
          :  -> integral neglect         0.1000000E-07      :
          :  -> SCF convergence          0.1000000E-05 Eh   :
          :  -> wf. convergence          0.1000000E-03 e    :
          :  Broyden damping             0.4000000          :
          :  net charge                          5          :
          :  unpaired electrons                  0          :
          ...................................................

 iter      E             dE          RMSdq      gap      omega  full diag
   1   -244.6298904 -0.244630E+03  0.486E+00    0.10       0.0  T
   2   -242.7620055  0.186788E+01  0.408E+00    0.17       1.0  T
   3   -245.4441209 -0.268212E+01  0.291E+00    0.05       1.0  T
   4   -245.8263274 -0.382206E+00  0.206E+00    0.05       1.0  T
   5   -246.0222178 -0.195890E+00  0.187E+00    0.05       1.0  T
   6   -245.5615238  0.460694E+00  0.222E+00    0.15       1.0  T
   7   -246.1809180 -0.619394E+00  0.133E+00    0.23       1.0  T
   8   -246.1198882  0.610298E-01  0.138E+00    0.04       1.0  T
   9   -246.2262470 -0.106359E+00  0.122E+00    0.07       1.0  T
  10   -246.1337241  0.925229E-01  0.135E+00    0.16       1.0  T
  11   -246.0499480  0.837761E-01  0.131E+00    0.08       1.0  T
  12   -246.3424042 -0.292456E+00  0.882E-01    0.01       1.0  T
  13   -246.3745319 -0.321276E-01  0.705E-01    0.00       1.0  T
  14   -246.3170484  0.574835E-01  0.878E-01    0.06       1.0  T
  15   -245.8806267  0.436422E+00  0.144E+00    0.06       1.0  T
  16   -246.4097973 -0.529171E+00  0.531E-01    0.01       1.0  T
  17   -246.4025674  0.722982E-02  0.620E-01    0.03       1.0  T
  18   -246.3856018  0.169656E-01  0.620E-01    0.01       1.0  T
  19   -246.3950348 -0.943299E-02  0.584E-01    0.01       1.0  T
  20   -246.4320175 -0.369827E-01  0.478E-01    0.01       1.0  T
  21   -246.4576743 -0.256568E-01  0.378E-01    0.03       1.0  T
  22   -246.4557293  0.194493E-02  0.333E-01    0.01       1.0  T
  23   -246.4670359 -0.113066E-01  0.262E-01    0.01       1.0  T
  24   -246.4442443  0.227916E-01  0.395E-01    0.01       1.0  T
  25   -246.4798146 -0.355704E-01  0.121E-01    0.02       1.0  T
  26   -246.4764246  0.339007E-02  0.227E-01    0.03       1.0  T
  27   -246.4785536 -0.212899E-02  0.141E-01    0.01       1.0  T
  28   -246.4821274 -0.357384E-02  0.769E-02    0.01       1.0  T
  29   -246.4820602  0.671998E-04  0.795E-02    0.01       1.0  T
  30   -246.4830167 -0.956524E-03  0.530E-02    0.01       1.0  T
  31   -246.4833806 -0.363860E-03  0.337E-02    0.01       1.0  T
  32   -246.4836235 -0.242879E-03  0.149E-02    0.01       1.0  T
  33   -246.4836688 -0.453301E-04  0.437E-03    0.01       1.8  T
  34   -246.4836711 -0.228938E-05  0.359E-03    0.01       2.2  T
  35   -246.4836730 -0.195195E-05  0.592E-04    0.01      13.5  T
  36   -246.4836731 -0.366610E-07  0.511E-04    0.01      15.6  T
  37   -246.4836731 -0.323599E-07  0.225E-04    0.01      35.4  T

   *** convergence criteria satisfied after 37 iterations ***

         #    Occupation            Energy/Eh            Energy/eV
      -------------------------------------------------------------
         1        2.0000           -0.8349639             -22.7205
       ...           ...                  ...                  ...
       208        1.9973           -0.4933114             -13.4237
       209        1.9664           -0.4909018             -13.3581
       210        1.9063           -0.4898975             -13.3308
       211        1.7499           -0.4888837             -13.3032
       212        1.6116           -0.4883870             -13.2897
       213        1.5951           -0.4883379             -13.2883
       214        1.4864           -0.4880448             -13.2804 (HOMO)
       215        1.2522           -0.4875249             -13.2662 (LUMO)
       216        0.4372           -0.4858251             -13.2200
       217                         -0.3776891             -10.2774
       218                         -0.3731418             -10.1537
       219                         -0.3705980             -10.0845
       ...                                ...                  ...
       393                          0.5848519              15.9146
      -------------------------------------------------------------
                  HL-Gap            0.0005198 Eh            0.0141 eV
             Fermi-level           -0.4870353 Eh          -13.2529 eV

 SCC (total)                   0 d,  0 h,  0 min,  0.692 sec
 SCC setup                      ...        0 min,  0.002 sec (  0.259%)
 Dispersion                     ...        0 min,  0.004 sec (  0.603%)
 classical contributions        ...        0 min,  0.000 sec (  0.040%)
 integral evaluation            ...        0 min,  0.008 sec (  1.154%)
 iterations                     ...        0 min,  0.654 sec ( 94.499%)
 molecular gradient             ...        0 min,  0.022 sec (  3.244%)
 printout                       ...        0 min,  0.001 sec (  0.197%)

         :::::::::::::::::::::::::::::::::::::::::::::::::::::
         ::                     SUMMARY                     ::
         :::::::::::::::::::::::::::::::::::::::::::::::::::::
         :: total energy            -243.404864797838 Eh    ::
         :: total w/o Gsasa/hb      -243.318988082918 Eh    ::
         :: gradient norm              0.316568880407 Eh/a0 ::
         :: HOMO-LUMO gap              0.014145457380 eV    ::
         ::.................................................::
         :: SCC energy              -246.469710944286 Eh    ::
         :: -> isotropic ES            1.484094828571 Eh    ::
         :: -> anisotropic ES         -0.059492094184 Eh    ::
         :: -> anisotropic XC          0.083216559563 Eh    ::
         :: -> dispersion             -0.181419087729 Eh    ::
         :: -> Gsolv                  -0.867953069313 Eh    ::
         ::    -> Gelec               -0.782076354393 Eh    ::
         ::    -> Gsasa               -0.057559252535 Eh    ::
         ::    -> Ghb                 -0.033270899963 Eh    ::
         ::    -> Gshift               0.004953437577 Eh    ::
         :: repulsion energy           3.064846146448 Eh    ::
         :: add. restraining           0.000000000000 Eh    ::
         :: total charge               5.000000000000 e     ::
         :::::::::::::::::::::::::::::::::::::::::::::::::::::

           -------------------------------------------------
          |                Property Printout                |
           -------------------------------------------------

    * Orbital Energies and Occupations

         #    Occupation            Energy/Eh            Energy/eV
      -------------------------------------------------------------
         1        2.0000           -0.8349639             -22.7205
       ...           ...                  ...                  ...
       202        2.0000           -0.5063845             -13.7794
       203        2.0000           -0.5039503             -13.7132
       204        2.0000           -0.4987294             -13.5711
       205        1.9998           -0.4960473             -13.4981
       206        1.9997           -0.4953725             -13.4798
       207        1.9981           -0.4936550             -13.4330
       208        1.9973           -0.4933114             -13.4237
       209        1.9664           -0.4909018             -13.3581
       210        1.9063           -0.4898975             -13.3308
       211        1.7499           -0.4888837             -13.3032
       212        1.6116           -0.4883870             -13.2897
       213        1.5951           -0.4883379             -13.2883
       214        1.4864           -0.4880448             -13.2804 (HOMO)
       215        1.2522           -0.4875249             -13.2662 (LUMO)
       216        0.4372           -0.4858251             -13.2200
       217                         -0.3776891             -10.2774
       218                         -0.3731418             -10.1537
       219                         -0.3705980             -10.0845
       220                         -0.3384083              -9.2086
       221                         -0.3329634              -9.0604
       222                         -0.3295116              -8.9665
       223                         -0.3277734              -8.9192
       224                         -0.3227351              -8.7821
       225                         -0.3199215              -8.7055
       ...                                ...                  ...
       393                          0.5848519              15.9146
      -------------------------------------------------------------
                  HL-Gap            0.0005198 Eh            0.0141 eV
             Fermi-level           -0.4870353 Eh          -13.2529 eV

     #   Z          covCN         q      C6AA      α(0)
     1   7 N        2.629    -0.297    27.658     7.811
     2   6 C        3.803     0.012    20.377     6.427
     3   6 C        2.756     0.264    22.548     7.776
     4   8 O        0.859    -0.453    22.759     6.396
     5   6 C        3.803    -0.050    21.472     6.597
     6  16 S        1.907    -0.077   144.257    20.215
     7   7 N        2.688    -0.147    24.192     7.305
     8   6 C        3.795     0.017    20.301     6.416
     9   6 C        2.763     0.196    23.809     7.991
    10   8 O        0.856    -0.336    20.440     6.062
    11   6 C        3.811    -0.091    22.226     6.710
    12   6 C        3.809    -0.096    22.330     6.727
    13   6 C        3.808    -0.104    22.484     6.750
    14   6 C        3.735    -0.058    21.710     6.650
    15   7 N        3.485    -0.166    24.581     7.364
    16   7 N        2.629    -0.242    26.328     7.621
    17   6 C        3.783     0.015    20.345     6.425
    18   6 C        2.763     0.195    23.830     7.994
    19   8 O        0.856    -0.293    19.650     5.943
    20   6 C        3.683     0.058    19.798     6.371
    21   8 O        1.654    -0.408    21.007     6.187
    22   7 N        2.630    -0.291    27.515     7.790
    23   6 C        3.789     0.027    20.134     6.391
    24   6 C        2.752     0.264    22.553     7.776
    25   8 O        0.858    -0.475    23.243     6.464
    26   6 C        3.813    -0.112    22.630     6.771
    27   6 C        2.743     0.274    22.367     7.744
    28   8 O        0.859    -0.490    23.572     6.509
    29   7 N        2.640    -0.279    27.211     7.747
    30   7 N        2.688    -0.169    24.648     7.374
    31   6 C        3.794     0.008    20.448     6.439
    32   6 C        2.754     0.272    22.405     7.751
    33   8 O        0.858    -0.481    23.373     6.482
    34   6 C        3.682     0.058    19.811     6.374
    35   8 O        1.653    -0.466    22.172     6.356
    36   7 N        2.689    -0.159    24.439     7.342
    37   6 C        3.798     0.017    20.289     6.414
    38   6 C        2.756     0.276    22.333     7.739
    39   8 O        0.858    -0.444    22.583     6.371
    40   6 C        3.810    -0.088    22.175     6.703
    41   6 C        3.807    -0.089    22.192     6.706
    42   6 C        3.806    -0.098    22.369     6.733
    43   6 C        3.734    -0.060    21.747     6.656
    44   7 N        3.485    -0.163    24.516     7.354
    45   7 N        2.689    -0.158    24.410     7.338
    46   6 C        3.798     0.017    20.287     6.413
    47   6 C        2.750     0.273    22.387     7.748
    48   8 O        0.858    -0.451    22.717     6.390
    49   6 C        3.814    -0.088    22.169     6.702
    50   6 C        2.963     0.030    27.318     8.573
    51   6 C        2.928    -0.037    28.919     8.819
    52   6 C        2.928    -0.038    28.933     8.821
    53   6 C        2.919    -0.069    29.718     8.939
    54   6 C        2.918    -0.046    29.139     8.852
    55   6 C        2.848     0.170    24.330     8.084
    56   8 O        1.661    -0.399    20.836     6.162
    57   7 N        2.686    -0.153    24.312     7.323
    58   6 C        3.791     0.012    20.387     6.430
    59   6 C        2.749     0.268    22.469     7.762
    60   8 O        0.859    -0.473    23.196     6.457
    61   6 C        3.810    -0.086    22.128     6.696
    62   6 C        3.087     0.070    26.346     8.414
    63   7 N        1.990    -0.161    25.229     7.449
    64   6 C        3.057    -0.028    28.650     8.778
    65   6 C        2.106     0.100    28.391     8.610
    66   7 N        2.839    -0.037    21.947     6.958
    67   7 N        2.684    -0.154    24.329     7.326
    68   6 C        3.745    -0.043    21.422     6.602
    69   6 C        2.749     0.278    22.287     7.730
    70   8 O        0.859    -0.438    22.453     6.353
    71   7 N        2.685    -0.128    23.780     7.243
    72   6 C        3.792     0.026    20.143     6.392
    73   6 C        2.764     0.211    23.536     7.945
    74   8 O        0.856    -0.266    19.185     5.872
    75   6 C        3.852    -0.020    20.890     6.501
    76   6 C        3.759    -0.148    23.400     6.896
    77   6 C        3.757    -0.144    23.340     6.888
    78   1 H        0.860     0.217     1.025     1.586
    79   1 H        0.860     0.202     1.094     1.638
    80   1 H        0.927     0.112     1.676     2.024
    81   1 H        0.927     0.120     1.613     1.986
    82   1 H        0.927     0.119     1.622     1.991
    83   1 H        0.921     0.222     0.992     1.558
    84   1 H        0.861     0.224     0.992     1.560
    85   1 H        0.927     0.121     1.607     1.982
    86   1 H        0.929     0.089     1.884     2.146
    87   1 H        0.927     0.088     1.901     2.156
    88   1 H        0.927     0.075     2.036     2.231
    89   1 H        0.927     0.065     2.141     2.288
    90   1 H        0.926     0.077     2.005     2.214
    91   1 H        0.927     0.094     1.840     2.121
    92   1 H        0.927     0.086     1.916     2.165
    93   1 H        0.927     0.124     1.583     1.967
    94   1 H        0.927     0.120     1.611     1.985
    95   1 H        0.860     0.249     0.889     1.477
    96   1 H        0.860     0.214     1.035     1.594
    97   1 H        0.927     0.123     1.586     1.970
    98   1 H        0.929     0.120     1.611     1.985
    99   1 H        0.927     0.099     1.790     2.092
   100   1 H        0.927     0.111     1.691     2.033
   101   1 H        0.804     0.335     0.623     1.240
   102   1 H        0.860     0.195     1.131     1.666
   103   1 H        0.860     0.212     1.048     1.604
   104   1 H        0.927     0.068     2.107     2.270
   105   1 H        0.927     0.100     1.783     2.088
   106   1 H        0.927     0.094     1.838     2.120
   107   1 H        0.861     0.235     0.945     1.523
   108   1 H        0.861     0.246     0.900     1.486
   109   1 H        0.861     0.211     1.051     1.606
   110   1 H        0.927     0.102     1.768     2.079
   111   1 H        0.927     0.065     2.139     2.287
   112   1 H        0.927     0.095     1.833     2.117
   113   1 H        0.804     0.325     0.652     1.268
   114   1 H        0.861     0.233     0.952     1.528
   115   1 H        0.927     0.107     1.725     2.054
   116   1 H        0.927     0.069     2.098     2.265
   117   1 H        0.927     0.098     1.802     2.099
   118   1 H        0.927     0.068     2.105     2.269
   119   1 H        0.927     0.060     2.197     2.318
   120   1 H        0.927     0.077     2.011     2.218
   121   1 H        0.927     0.094     1.843     2.123
   122   1 H        0.927     0.124     1.584     1.968
   123   1 H        0.927     0.124     1.585     1.969
   124   1 H        0.861     0.228     0.973     1.545
   125   1 H        0.927     0.127     1.560     1.953
   126   1 H        0.927     0.107     1.725     2.054
   127   1 H        0.927     0.093     1.849     2.127
   128   1 H        0.929     0.083     1.951     2.184
   129   1 H        0.929     0.083     1.943     2.180
   130   1 H        0.929     0.082     1.957     2.187
   131   1 H        0.929     0.093     1.847     2.125
   132   1 H        0.807     0.364     0.557     1.172
   133   1 H        0.861     0.215     1.035     1.593
   134   1 H        0.927     0.104     1.747     2.067
   135   1 H        0.926     0.108     1.712     2.046
   136   1 H        0.927     0.121     1.605     1.981
   137   1 H        0.929     0.109     1.706     2.042
   138   1 H        0.861     0.225     0.988     1.557
   139   1 H        0.927     0.120     1.612     1.985
   140   1 H        0.927     0.112     1.679     2.026
   141   1 H        0.861     0.250     0.885     1.473
   142   1 H        0.927     0.144     1.432     1.871
   143   1 H        0.929     0.137     1.483     1.905
   144   1 H        0.927     0.081     1.966     2.193
   145   1 H        0.927     0.081     1.973     2.197
   146   1 H        0.927     0.063     2.162     2.299
   147   1 H        0.926     0.079     1.993     2.208
   148   1 H        0.927     0.076     2.019     2.222
   149   1 H        0.927     0.063     2.159     2.298
   150   1 H        0.927     0.055     2.263     2.353
   151   1 H        0.860     0.300     0.713     1.323
   152   1 H        0.860     0.292     0.738     1.346
   153   1 H        0.860     0.304     0.702     1.312
   154   1 H        0.860     0.302     0.707     1.317
   155   1 H        0.860     0.283     0.766     1.371
   156   1 H        0.860     0.307     0.694     1.305
   157   1 H        0.858     0.243     0.913     1.497

 Mol. C6AA /au·bohr⁶  :     224197.141527
 Mol. C8AA /au·bohr⁸  :    5164968.240494
 Mol. α(0) /au        :        713.421071


Wiberg/Mayer (AO) data.
largest (>0.10) Wiberg bond orders for each atom

 ---------------------------------------------------------------------------
     #   Z sym  total        # sym  WBO       # sym  WBO       # sym  WBO
 ---------------------------------------------------------------------------
     1   7 N    3.023 --     2 C    1.040    78 H    0.935    79 H    0.933
     2   6 C    3.933 --     1 N    1.040    80 H    0.949     5 C    0.929
                             3 C    0.926
     3   6 C    3.954 --     4 O    1.634     7 N    1.321     2 C    0.926
     4   8 O    1.965 --     3 C    1.634     7 N    0.201
     5   6 C    3.912 --     6 S    1.022    82 H    0.957    81 H    0.936
                             2 C    0.929
     6  16 S    2.114 --     5 C    1.022    83 H    0.925
     7   7 N    3.485 --     3 C    1.321     8 C    0.971    84 H    0.911
                             4 O    0.201
     8   6 C    3.946 --     7 N    0.971     9 C    0.967    11 C    0.965
                            85 H    0.938
     9   6 C    3.888 --    10 O    1.912     8 C    0.967    86 H    0.944
    10   8 O    2.054 --     9 C    1.912
    11   6 C    3.978 --    12 C    1.002    88 H    0.972    87 H    0.967
                             8 C    0.965
    12   6 C    3.991 --    13 C    1.004    11 C    1.002    89 H    0.976
                            90 H    0.969
    13   6 C    3.982 --    14 C    1.013    12 C    1.004    92 H    0.969
                            91 H    0.963
    14   6 C    3.904 --    13 C    1.013    94 H    0.967    93 H    0.964
                            15 N    0.939
    15   7 N    3.653 --    14 C    0.939   151 H    0.899   152 H    0.895
                           153 H    0.894
    16   7 N    2.994 --    17 C    1.054    96 H    0.932    95 H    0.914
    17   6 C    3.903 --    16 N    1.054    18 C    0.951    97 H    0.942
                            20 C    0.883
    18   6 C    3.867 --    19 O    1.930    17 C    0.951    98 H    0.929
    19   8 O    2.070 --    18 C    1.930
    20   6 C    3.868 --    21 O    1.027   100 H    0.957    99 H    0.939
                            17 C    0.883
    21   8 O    1.983 --    20 C    1.027   101 H    0.870
    22   7 N    2.944 --    23 C    1.020   102 H    0.945   103 H    0.936
    23   6 C    3.958 --    22 N    1.020    26 C    0.961    24 C    0.944
                           104 H    0.929
    24   6 C    3.946 --    25 O    1.607    30 N    1.316    23 C    0.944
    25   8 O    1.933 --    24 C    1.607    30 N    0.194
    26   6 C    3.979 --   105 H    0.965    27 C    0.964    23 C    0.961
                           106 H    0.957
    27   6 C    3.949 --    28 O    1.614    29 N    1.342    26 C    0.964
    28   8 O    1.945 --    27 C    1.614    29 N    0.203
    29   7 N    3.427 --    27 C    1.342   107 H    0.927   108 H    0.919
                            28 O    0.203
    30   7 N    3.484 --    24 C    1.316    31 C    0.974   109 H    0.920
                            25 O    0.194
    31   6 C    3.954 --    30 N    0.974    34 C    0.966   110 H    0.942
                            32 C    0.938
    32   6 C    3.951 --    33 O    1.613    36 N    1.321    31 C    0.938
    33   8 O    1.926 --    32 C    1.613    36 N    0.188
    34   6 C    3.947 --    35 O    1.006    31 C    0.966   111 H    0.966
                           112 H    0.965
    35   8 O    1.944 --    34 C    1.006   113 H    0.877
    36   7 N    3.467 --    32 C    1.321    37 C    0.976   114 H    0.891
                            33 O    0.188
    37   6 C    3.925 --    36 N    0.976    40 C    0.973   115 H    0.943
                            38 C    0.925
    38   6 C    3.934 --    39 O    1.640    45 N    1.296    37 C    0.925
    39   8 O    1.929 --    38 C    1.640    45 N    0.181
    40   6 C    3.973 --    41 C    1.004    37 C    0.973   116 H    0.973
                           117 H    0.957
    41   6 C    3.990 --    42 C    1.005    40 C    1.004   119 H    0.975
                           118 H    0.975
    42   6 C    3.983 --    43 C    1.010    41 C    1.005   120 H    0.970
                           121 H    0.964
    43   6 C    3.902 --    42 C    1.010   122 H    0.966   123 H    0.964
                            44 N    0.940
    44   7 N    3.655 --    43 C    0.940   155 H    0.902   154 H    0.896
                           156 H    0.894
    45   7 N    3.457 --    38 C    1.296    46 C    0.982   124 H    0.905
                            39 O    0.181
    46   6 C    3.921 --    45 N    0.982    49 C    0.953   125 H    0.928
                            47 C    0.927
    47   6 C    3.944 --    48 O    1.623    57 N    1.315    46 C    0.927
    48   8 O    1.944 --    47 C    1.623    57 N    0.190
    49   6 C    3.961 --    50 C    1.022   127 H    0.968    46 C    0.953
                           126 H    0.943
    50   6 C    3.852 --    52 C    1.358    51 C    1.354    49 C    1.022
    51   6 C    3.950 --    53 C    1.485    50 C    1.354   128 H    0.967
    52   6 C    3.962 --    54 C    1.486    50 C    1.358   129 H    0.966
    53   6 C    3.937 --    51 C    1.485    55 C    1.319   130 H    0.964
    54   6 C    3.920 --    52 C    1.486    55 C    1.311   131 H    0.964
    55   6 C    3.824 --    53 C    1.319    54 C    1.311    56 O    1.104
    56   8 O    2.067 --    55 C    1.104   132 H    0.847
    57   7 N    3.478 --    47 C    1.315    58 C    0.974   133 H    0.913
                            48 O    0.190
    58   6 C    3.956 --    57 N    0.974    61 C    0.965   134 H    0.939
                            59 C    0.937
    59   6 C    3.953 --    60 O    1.631    67 N    1.310    58 C    0.937
    60   8 O    1.944 --    59 C    1.631    67 N    0.192
    61   6 C    3.974 --    62 C    1.022    58 C    0.965   136 H    0.948
                           135 H    0.947
    62   6 C    3.892 --    64 C    1.553    63 N    1.171    61 C    1.022
    63   7 N    3.161 --    65 C    1.776    62 C    1.171
    64   6 C    3.892 --    62 C    1.553    66 N    1.179   137 H    0.962
                            65 C    0.122
    65   6 C    3.426 --    63 N    1.776    66 N    1.344    64 C    0.122
    66   7 N    3.588 --    65 C    1.344    64 C    1.179   157 H    0.908
    67   7 N    3.468 --    59 C    1.310    68 C    0.989   138 H    0.915
                            60 O    0.192
    68   6 C    3.943 --    67 N    0.989   139 H    0.951    69 C    0.948
                           140 H    0.947
    69   6 C    3.940 --    70 O    1.653    71 N    1.281    68 C    0.948
    70   8 O    1.923 --    69 C    1.653    71 N    0.156
    71   7 N    3.417 --    69 C    1.281    72 C    0.999   141 H    0.898
                            70 O    0.156
    72   6 C    3.875 --    71 N    0.999    73 C    0.933    75 C    0.933
                           142 H    0.911
    73   6 C    3.827 --    74 O    1.923    72 C    0.933   143 H    0.906
    74   8 O    2.051 --    73 C    1.923
    75   6 C    3.954 --    77 C    1.004    76 C    0.991   144 H    0.962
                            72 C    0.933
    76   6 C    3.961 --    75 C    0.991   146 H    0.983   145 H    0.976
                           147 H    0.968
    77   6 C    3.982 --    75 C    1.004   150 H    0.980   149 H    0.977
                           148 H    0.975
    78   1 H    0.949 --     1 N    0.935
    79   1 H    0.956 --     1 N    0.933
    80   1 H    0.985 --     2 C    0.949
    81   1 H    0.967 --     5 C    0.936
    82   1 H    0.986 --     5 C    0.957
    83   1 H    0.950 --     6 S    0.925
    84   1 H    0.950 --     7 N    0.911
    85   1 H    0.983 --     8 C    0.938
    86   1 H    0.986 --     9 C    0.944
    87   1 H    0.991 --    11 C    0.967
    88   1 H    0.994 --    11 C    0.972
    89   1 H    0.996 --    12 C    0.976
    90   1 H    0.994 --    12 C    0.969
    91   1 H    0.991 --    13 C    0.963
    92   1 H    0.991 --    13 C    0.969
    93   1 H    0.985 --    14 C    0.964
    94   1 H    0.985 --    14 C    0.967
    95   1 H    0.929 --    16 N    0.914
    96   1 H    0.951 --    16 N    0.932
    97   1 H    0.982 --    17 C    0.942
    98   1 H    0.970 --    18 C    0.929
    99   1 H    0.970 --    20 C    0.939
   100   1 H    0.988 --    20 C    0.957
   101   1 H    0.887 --    21 O    0.870
   102   1 H    0.958 --    22 N    0.945
   103   1 H    0.950 --    22 N    0.936
   104   1 H    0.955 --    23 C    0.929
   105   1 H    0.986 --    26 C    0.965
   106   1 H    0.990 --    26 C    0.957
   107   1 H    0.945 --    29 N    0.927
   108   1 H    0.939 --    29 N    0.919
   109   1 H    0.955 --    30 N    0.920
   110   1 H    0.989 --    31 C    0.942
   111   1 H    0.993 --    34 C    0.966
   112   1 H    0.990 --    34 C    0.965
   113   1 H    0.895 --    35 O    0.877
   114   1 H    0.945 --    36 N    0.891
   115   1 H    0.982 --    37 C    0.943
   116   1 H    0.993 --    40 C    0.973
   117   1 H    0.981 --    40 C    0.957
   118   1 H    0.995 --    41 C    0.975
   119   1 H    0.994 --    41 C    0.975
   120   1 H    0.994 --    42 C    0.970
   121   1 H    0.991 --    42 C    0.964
   122   1 H    0.984 --    43 C    0.966
   123   1 H    0.985 --    43 C    0.964
   124   1 H    0.948 --    45 N    0.905
   125   1 H    0.983 --    46 C    0.928
   126   1 H    0.975 --    49 C    0.943
   127   1 H    0.991 --    49 C    0.968
   128   1 H    0.993 --    51 C    0.967
   129   1 H    0.993 --    52 C    0.966
   130   1 H    0.993 --    53 C    0.964
   131   1 H    0.991 --    54 C    0.964
   132   1 H    0.867 --    56 O    0.847
   133   1 H    0.954 --    57 N    0.913
   134   1 H    0.987 --    58 C    0.939
   135   1 H    0.982 --    61 C    0.947
   136   1 H    0.981 --    61 C    0.948
   137   1 H    0.988 --    64 C    0.962
   138   1 H    0.949 --    67 N    0.915
   139   1 H    0.982 --    68 C    0.951
   140   1 H    0.986 --    68 C    0.947
   141   1 H    0.937 --    71 N    0.898
   142   1 H    0.962 --    72 C    0.911
   143   1 H    0.929 --    73 C    0.906
   144   1 H    0.992 --    75 C    0.962
   145   1 H    0.993 --    76 C    0.976
   146   1 H    0.996 --    76 C    0.983
   147   1 H    0.988 --    76 C    0.968
   148   1 H    0.994 --    77 C    0.975
   149   1 H    0.995 --    77 C    0.977
   150   1 H    0.994 --    77 C    0.980
   151   1 H    0.910 --    15 N    0.899
   152   1 H    0.915 --    15 N    0.895
   153   1 H    0.908 --    15 N    0.894
   154   1 H    0.909 --    44 N    0.896
   155   1 H    0.920 --    44 N    0.902
   156   1 H    0.906 --    44 N    0.894
   157   1 H    0.941 --    66 N    0.908
 ---------------------------------------------------------------------------

Topologies differ in total number of bonds
Writing topology from bond orders to xtbtopo.mol

molecular dipole:
                 x           y           z       tot (Debye)
 q only:     -128.124     -20.083    -171.579
   full:     -126.415     -19.683    -171.379     543.595
molecular quadrupole (traceless):
                xx          xy          yy          xz          yz          zz
 q only:      179.148     934.962   -4558.660    6891.272    1092.316    4379.512
  q+dip:       77.680     934.586   -4478.551    6789.961    1073.690    4400.871
   full:       79.076     934.038   -4480.496    6789.389    1072.728    4401.420


           -------------------------------------------------
          | TOTAL ENERGY             -243.404864797838 Eh   |
          | GRADIENT NORM               0.316568880407 Eh/α |
          | HOMO-LUMO GAP               0.014145457380 eV   |
           -------------------------------------------------
########################################################################
[WARNING] Runtime exception occurred
-2- restart_readRestart: Dimension missmatch in restart file.
-1- restart_readRestart: Number of electron missmatch in restart file.
########################################################################

------------------------------------------------------------------------
 * finished run on 2025/05/05 at 16:51:52.566     
------------------------------------------------------------------------
 total:
 * wall-time:     0 d,  0 h,  0 min,  0.707 sec
 *  cpu-time:     0 d,  0 h,  0 min, 21.644 sec
 * ratio c/w:    30.632 speedup
 SCF:
 * wall-time:     0 d,  0 h,  0 min,  0.693 sec
 *  cpu-time:     0 d,  0 h,  0 min, 21.305 sec
 * ratio c/w:    30.754 speedup

