      -----------------------------------------------------------      
     |                   =====================                   |     
     |                           x T B                           |     
     |                   =====================                   |     
     |                         S. Grimme                         |     
     |          Mulliken Center for Theoretical Chemistry        |     
     |                    University of Bonn                     |     
      -----------------------------------------------------------      

   * xtb version 6.7.1 (edcfbbe) compiled by 'conda@afd1a870197c' on 2025-04-11

   xtb is free software: you can redistribute it and/or modify it under
   the terms of the GNU Lesser General Public License as published by
   the Free Software Foundation, either version 3 of the License, or
   (at your option) any later version.
   
   xtb is distributed in the hope that it will be useful,
   but WITHOUT ANY WARRANTY; without even the implied warranty of
   MERCHANTABILITY or FITNESS FOR A PARTICULAR PURPOSE.  See the
   GNU Lesser General Public License for more details.
   
   Cite this work as:
   * C. Bannwarth, E. Caldeweyher, S. Ehlert, A. Hansen, P. Pracht,
     J. Seibert, S. Spicher, S. Grimme, WIREs Comput. Mol. Sci., 2020, 11,
     e01493. DOI: 10.1002/wcms.1493
   
   for GFN2-xTB:
   * C. Bannwarth, S. Ehlert and S. Grimme., J. Chem. Theory Comput., 2019,
     15, 1652-1671. DOI: 10.1021/acs.jctc.8b01176
   for GFN1-xTB:
   * S. Grimme, C. Bannwarth, P. Shushkov, J. Chem. Theory Comput., 2017,
     13, 1989-2009. DOI: 10.1021/acs.jctc.7b00118
   for GFN0-xTB:
   * P. Pracht, E. Caldeweyher, S. Ehlert, S. Grimme, ChemRxiv, 2019, preprint.
     DOI: 10.26434/chemrxiv.8326202.v1
   for GFN-FF:
   * S. Spicher and S. Grimme, Angew. Chem. Int. Ed., 2020, 59, 15665-15673.
     DOI: 10.1002/anie.202004239
   
   for ALPB and GBSA implicit solvation:
   * S. Ehlert, M. Stahn, S. Spicher, S. Grimme, J. Chem. Theory Comput.,
     2021, 17, 4250-4261. DOI: 10.1021/acs.jctc.1c00471
   
   for ddCOSMO and CPCM-X implicit solvation:
   * M. Stahn, S. Ehlert, S. Grimme, J. Phys. Chem. A,
     2023, XX, XXXX-XXXX. DOI: 10.1021/acs.jpca.3c04382
   
   for DFT-D4:
   * E. Caldeweyher, C. Bannwarth and S. Grimme, J. Chem. Phys., 2017,
     147, 034112. DOI: 10.1063/1.4993215
   * E. Caldeweyher, S. Ehlert, A. Hansen, H. Neugebauer, S. Spicher,
     C. Bannwarth and S. Grimme, J. Chem. Phys., 2019, 150, 154122.
     DOI: 10.1063/1.5090222
   * E. Caldeweyher, J.-M. Mewes, S. Ehlert and S. Grimme, Phys. Chem. Chem. Phys.
     2020, 22, 8499-8512. DOI: 10.1039/D0CP00502A
   
   for sTDA-xTB:
   * S. Grimme and C. Bannwarth, J. Chem. Phys., 2016, 145, 054103.
     DOI: 10.1063/1.4959605
   
   in the mass-spec context:
   * V. Asgeirsson, C. Bauer and S. Grimme, Chem. Sci., 2017, 8, 4879.
     DOI: 10.1039/c7sc00601b
   * J. Koopman and S. Grimme, ACS Omega 2019, 4, 12, 15120-15133.
     DOI: 10.1021/acsomega.9b02011
   
   for metadynamics refer to:
   * S. Grimme, J. Chem. Theory Comput., 2019, 155, 2847-2862
     DOI: 10.1021/acs.jctc.9b00143
   
   for SPH calculations refer to:
   * S. Spicher and S. Grimme, J. Chem. Theory Comput., 2021, 17, 1701-1714
     DOI: 10.1021/acs.jctc.0c01306
   
   for ONIOM refer to:
   * C. Plett, A. Katbashev, S. Ehlert, S. Grimme, M. Bursch,
     Phys. Chem. Chem. Phys., 2023, 25, 17860-17868. DOI: 10.1039/D3CP02178E
   
   for DIPRO refer to:
   * J. Kohn, N. Gildemeister, S. Grimme, D. Fazzi, A. Hansen,
     J. Chem. Phys., 2023, just accepted.
   
   for PTB refer to:
   * S. Grimme, M. Mueller, A. Hansen, J. Chem. Phys., 2023, 158, 124111.
     DOI: 10.1063/5.0137838
   
   with help from (in alphabetical order)
   P. Atkinson, C. Bannwarth, F. Bohle, G. Brandenburg, E. Caldeweyher
   M. Checinski, S. Dohm, S. Ehlert, S. Ehrlich, I. Gerasimov, C. Hölzer
   A. Katbashev, J. Kohn, J. Koopman, C. Lavigne, S. Lehtola, F. März, M. Müller,
   F. Musil, H. Neugebauer, J. Pisarek, C. Plett, P. Pracht, F. Pultar,
   J. Seibert, P. Shushkov, S. Spicher, M. Stahn, M. Steiner, T. Strunk,
   J. Stückrath, T. Rose, and J. Unsleber
   
 * started run on 2025/05/05 at 16:50:39.806     
   ID    Z sym.   atoms
    1    7 N      1, 8, 9, 17, 25, 33, 39, 42, 43, 49, 52, 53, 61, 68, 70, 71
    2    6 C      2, 3, 5, 6, 10, 11, 13, 14, 16, 18, 19, 21-24, 26, 27, 29,
                  30, 32, 34, 35, 37, 38, 40, 41, 44, 45, 47, 48, 50, 51, 54,
                  55, 57, 58, 62, 63, 65-67, 69
    3    8 O      4, 7, 12, 20, 28, 36, 46, 56, 59, 60, 64
    4   16 S      15, 31
    5    1 H      72-136

           -------------------------------------------------
          |                Calculation Setup                |
           -------------------------------------------------

          program call               : xtb /tmp/tmpik6dgooc/HIE/input.xyz --alpb ether --chrg 0 --input /tmp/tmpik6dgooc/HIE/constraints.inp --gfn 2
          hostname                   : fedora
          coordinate file            : /tmp/tmpik6dgooc/HIE/input.xyz
          omp threads                :                    32


           -------------------------------------------------
          |                 G F N 2 - x T B                 |
           -------------------------------------------------

        Reference                      10.1021/acs.jctc.8b01176
      * Hamiltonian:
        H0-scaling (s, p, d)           1.850000    2.230000    2.230000
        zeta-weighting                 0.500000
      * Dispersion:
        s8                             2.700000
        a1                             0.520000
        a2                             5.000000
        s9                             5.000000
      * Repulsion:
        kExp                           1.500000    1.000000
        rExp                           1.000000
      * Coulomb:
        alpha                          2.000000
        third order                    shell-resolved
        anisotropic                    true
        a3                             3.000000
        a5                             4.000000
        cn-shift                       1.200000
        cn-exp                         4.000000
        max-rad                        5.000000

      * Solvation model:               ALPB
        Solvent                        ether
        Parameter file                 internal GFN2-xTB/ALPB
        Dielectric constant                4.3300E+00
        Reference state                gsolv [1 M gas/solution]
        Free energy shift                  4.9534E-03 Eh       3.1083E+00 kcal/mol
        Temperature                        2.9815E+02 K
        Density                            7.1300E-01 kg/L
        Solvent mass                       7.4120E+01 g/mol
        Interaction kernel             P16
        Born radius scaling (c1)           1.5847E+00
        Born radii integrator          GBOBC
        Born offset                        0.0000E+00 a0       0.0000E+00 AA
        H-bond correction              true
        Ion screening                  false
        Surface tension                    1.0000E-05 Eh       1.5569E+01 dyn/cm
        Grid points                               230 per atom

          ...................................................
          :                      SETUP                      :
          :.................................................:
          :  # basis functions                 361          :
          :  # atomic orbitals                 359          :
          :  # shells                          209          :
          :  # electrons                       391          :
          :  max. iterations                   250          :
          :  Hamiltonian                  GFN2-xTB          :
          :  restarted?                      false          :
          :  GBSA solvation                   true          :
          :  PC potential                    false          :
          :  electronic temp.          300.0000000     K    :
          :  accuracy                    1.0000000          :
          :  -> integral cutoff          0.2500000E+02      :
          :  -> integral neglect         0.1000000E-07      :
          :  -> SCF convergence          0.1000000E-05 Eh   :
          :  -> wf. convergence          0.1000000E-03 e    :
          :  Broyden damping             0.4000000          :
          :  net charge                          0          :
          :  unpaired electrons                  0          :
          ...................................................

 iter      E             dE          RMSdq      gap      omega  full diag
   1   -221.4130417 -0.221413E+03  0.490E+00    0.04       0.0  T
   2   -219.8514713  0.156157E+01  0.452E+00    0.05       1.0  T
   3   -222.3798924 -0.252842E+01  0.291E+00    0.88       1.0  T
   4   -223.5058419 -0.112595E+01  0.193E+00    0.06       1.0  T
   5   -222.7184891  0.787353E+00  0.218E+00    0.29       1.0  T
   6   -223.0801062 -0.361617E+00  0.172E+00    0.30       1.0  T
   7   -223.3605741 -0.280468E+00  0.184E+00    0.78       1.0  T
   8   -223.6297919 -0.269218E+00  0.101E+00    0.56       1.0  T
   9   -223.5686057  0.611862E-01  0.164E+00    0.09       1.0  T
  10   -223.7040260 -0.135420E+00  0.672E-01    0.18       1.0  T
  11   -223.7151102 -0.110842E-01  0.562E-01    0.16       1.0  T
  12   -223.1819925  0.533118E+00  0.161E+00    0.12       1.0  T
  13   -223.6251530 -0.443160E+00  0.752E-01    0.05       1.0  T
  14   -223.5640951  0.610579E-01  0.875E-01    0.15       1.0  T
  15   -223.6685526 -0.104457E+00  0.612E-01    0.12       1.0  T
  16   -223.6873142 -0.187616E-01  0.500E-01    0.13       1.0  T
  17   -223.7284778 -0.411636E-01  0.284E-01    0.08       1.0  T
  18   -223.7436693 -0.151916E-01  0.155E-01    0.05       1.0  T
  19   -223.7412377  0.243161E-02  0.186E-01    0.04       1.0  T
  20   -223.7422262 -0.988437E-03  0.146E-01    0.06       1.0  T
  21   -223.7459812 -0.375503E-02  0.803E-02    0.05       1.0  T
  22   -223.7476326 -0.165137E-02  0.163E-02    0.05       1.0  T
  23   -223.7475565  0.760581E-04  0.230E-02    0.05       1.0  T
  24   -223.7476007 -0.442053E-04  0.157E-02    0.05       1.0  T
  25   -223.7476520 -0.513036E-04  0.401E-03    0.05       2.1  T
  26   -223.7476521 -0.104707E-06  0.290E-03    0.05       3.0  T
  27   -223.7476511  0.105978E-05  0.389E-03    0.05       2.2  T
  28   -223.7476538 -0.268923E-05  0.971E-04    0.05       8.8  T
  29   -223.7476540 -0.262105E-06  0.158E-04    0.05      54.1  T
  30   -223.7476540  0.722281E-08  0.202E-04    0.05      42.4  T

   *** convergence criteria satisfied after 30 iterations ***

         #    Occupation            Energy/Eh            Energy/eV
      -------------------------------------------------------------
         1        2.0000           -0.7577626             -20.6198
       ...           ...                  ...                  ...
       190        2.0000           -0.3613318              -9.8323
       191        2.0000           -0.3612267              -9.8295
       192        1.9792           -0.3542859              -9.6406
       193        1.9488           -0.3534089              -9.6167
       194        1.8571           -0.3523634              -9.5883
       195        1.7571           -0.3517770              -9.5723
       196        1.0664           -0.3497610              -9.5175 (HOMO)
       197        0.3915           -0.3480194              -9.4701 (LUMO)
       198                         -0.2801762              -7.6240
       199                         -0.2518807              -6.8540
       200                         -0.2327610              -6.3337
       201                         -0.2270986              -6.1797
       ...                                ...                  ...
       359                          0.6731604              18.3176
      -------------------------------------------------------------
                  HL-Gap            0.0017416 Eh            0.0474 eV
             Fermi-level           -0.3496057 Eh           -9.5133 eV

 SCC (total)                   0 d,  0 h,  0 min,  0.766 sec
 SCC setup                      ...        0 min,  0.002 sec (  0.278%)
 Dispersion                     ...        0 min,  0.003 sec (  0.383%)
 classical contributions        ...        0 min,  0.000 sec (  0.024%)
 integral evaluation            ...        0 min,  0.009 sec (  1.166%)
 iterations                     ...        0 min,  0.732 sec ( 95.568%)
 molecular gradient             ...        0 min,  0.017 sec (  2.185%)
 printout                       ...        0 min,  0.003 sec (  0.393%)

         :::::::::::::::::::::::::::::::::::::::::::::::::::::
         ::                     SUMMARY                     ::
         :::::::::::::::::::::::::::::::::::::::::::::::::::::
         :: total energy            -221.001625037603 Eh    ::
         :: total w/o Gsasa/hb      -220.931860916339 Eh    ::
         :: gradient norm              0.267656813259 Eh/a0 ::
         :: HOMO-LUMO gap              0.047392222305 eV    ::
         ::.................................................::
         :: SCC energy              -223.736787296877 Eh    ::
         :: -> isotropic ES            0.714733964769 Eh    ::
         :: -> anisotropic ES         -0.014118012688 Eh    ::
         :: -> anisotropic XC          0.078947016235 Eh    ::
         :: -> dispersion             -0.171347587011 Eh    ::
         :: -> Gsolv                  -0.224718706346 Eh    ::
         ::    -> Gelec               -0.154954585082 Eh    ::
         ::    -> Gsasa               -0.057681320212 Eh    ::
         ::    -> Ghb                 -0.017036238630 Eh    ::
         ::    -> Gshift               0.004953437577 Eh    ::
         :: repulsion energy           2.735162259274 Eh    ::
         :: add. restraining           0.000000000000 Eh    ::
         :: total charge               0.000000000001 e     ::
         :::::::::::::::::::::::::::::::::::::::::::::::::::::

           -------------------------------------------------
          |                Property Printout                |
           -------------------------------------------------

    * Orbital Energies and Occupations

         #    Occupation            Energy/Eh            Energy/eV
      -------------------------------------------------------------
         1        2.0000           -0.7577626             -20.6198
       ...           ...                  ...                  ...
       184        2.0000           -0.3820638             -10.3965
       185        2.0000           -0.3810481             -10.3688
       186        2.0000           -0.3791905             -10.3183
       187        2.0000           -0.3753371             -10.2134
       188        2.0000           -0.3737423             -10.1700
       189        2.0000           -0.3704851             -10.0814
       190        2.0000           -0.3613318              -9.8323
       191        2.0000           -0.3612267              -9.8295
       192        1.9792           -0.3542859              -9.6406
       193        1.9488           -0.3534089              -9.6167
       194        1.8571           -0.3523634              -9.5883
       195        1.7571           -0.3517770              -9.5723
       196        1.0664           -0.3497610              -9.5175 (HOMO)
       197        0.3915           -0.3480194              -9.4701 (LUMO)
       198                         -0.2801762              -7.6240
       199                         -0.2518807              -6.8540
       200                         -0.2327610              -6.3337
       201                         -0.2270986              -6.1797
       202                         -0.2173224              -5.9136
       203                         -0.2136850              -5.8147
       204                         -0.2108347              -5.7371
       205                         -0.2085211              -5.6741
       206                         -0.2028326              -5.5194
       207                         -0.1995727              -5.4306
       ...                                ...                  ...
       359                          0.6731604              18.3176
      -------------------------------------------------------------
                  HL-Gap            0.0017416 Eh            0.0474 eV
             Fermi-level           -0.3496057 Eh           -9.5133 eV

     #   Z          covCN         q      C6AA      α(0)
     1   7 N        2.630    -0.375    29.674     8.090
     2   6 C        3.788     0.038    19.947     6.361
     3   6 C        2.756     0.265    22.533     7.773
     4   8 O        0.859    -0.497    23.712     6.529
     5   6 C        3.811    -0.105    22.503     6.752
     6   6 C        2.742     0.282    22.218     7.718
     7   8 O        0.859    -0.495    23.666     6.522
     8   7 N        2.639    -0.280    27.238     7.751
     9   7 N        2.690    -0.177    24.823     7.400
    10   6 C        3.798     0.021    20.219     6.402
    11   6 C        2.753     0.276    22.338     7.739
    12   8 O        0.858    -0.499    23.769     6.537
    13   6 C        3.841    -0.082    22.025     6.676
    14   6 C        3.800    -0.016    20.866     6.504
    15  16 S        1.977    -0.216   150.269    20.632
    16   6 C        3.751    -0.064    21.790     6.657
    17   7 N        2.688    -0.177    24.825     7.400
    18   6 C        3.796     0.021    20.222     6.403
    19   6 C        2.754     0.275    22.352     7.742
    20   8 O        0.858    -0.483    23.410     6.487
    21   6 C        3.815    -0.083    22.068     6.686
    22   6 C        3.853    -0.015    20.800     6.487
    23   6 C        3.761    -0.114    22.726     6.796
    24   6 C        3.763    -0.123    22.894     6.820
    25   7 N        2.688    -0.176    24.805     7.397
    26   6 C        3.794     0.022    20.210     6.402
    27   6 C        2.753     0.274    22.370     7.745
    28   8 O        0.859    -0.485    23.451     6.493
    29   6 C        3.843    -0.060    21.615     6.614
    30   6 C        3.800    -0.017    20.883     6.506
    31  16 S        1.978    -0.191   149.179    20.557
    32   6 C        3.751    -0.063    21.778     6.655
    33   7 N        2.685    -0.174    24.764     7.391
    34   6 C        3.795     0.020    20.242     6.407
    35   6 C        2.756     0.272    22.396     7.750
    36   8 O        0.860    -0.492    23.612     6.515
    37   6 C        3.810    -0.062    21.691     6.629
    38   6 C        3.086     0.056    26.657     8.464
    39   7 N        1.990    -0.270    27.808     7.821
    40   6 C        3.057     0.002    27.925     8.666
    41   6 C        2.106     0.126    27.794     8.519
    42   7 N        1.980    -0.274    27.929     7.838
    43   7 N        2.683    -0.168    24.626     7.370
    44   6 C        3.795     0.017    20.299     6.416
    45   6 C        2.751     0.268    22.475     7.763
    46   8 O        0.858    -0.491    23.596     6.513
    47   6 C        3.807    -0.071    21.852     6.655
    48   6 C        3.086     0.058    26.612     8.456
    49   7 N        1.989    -0.296    28.469     7.913
    50   6 C        3.058    -0.028    28.641     8.776
    51   6 C        2.107     0.009    30.622     8.941
    52   7 N        2.837    -0.081    22.813     7.094
    53   7 N        2.688    -0.157    24.398     7.336
    54   6 C        3.799     0.032    20.035     6.373
    55   6 C        2.754     0.275    22.342     7.740
    56   8 O        0.859    -0.496    23.686     6.525
    57   6 C        3.809    -0.078    21.988     6.675
    58   6 C        2.687     0.377    20.616     7.431
    59   8 O        0.856    -0.579    25.608     6.785
    60   8 O        0.857    -0.548    24.881     6.688
    61   7 N        2.689    -0.169    24.649     7.374
    62   6 C        3.791     0.027    20.129     6.389
    63   6 C        2.764     0.209    23.572     7.951
    64   8 O        0.856    -0.355    20.805     6.115
    65   6 C        3.810    -0.084    22.099     6.692
    66   6 C        3.804    -0.089    22.196     6.707
    67   6 C        3.742    -0.032    21.214     6.571
    68   7 N        2.698    -0.140    24.028     7.280
    69   6 C        2.736     0.233    23.113     7.871
    70   7 N        2.652    -0.259    26.733     7.679
    71   7 N        2.654    -0.269    26.956     7.711
    72   1 H        0.860     0.150     1.402     1.855
    73   1 H        0.860     0.174     1.251     1.752
    74   1 H        0.927     0.041     2.436     2.441
    75   1 H        0.927     0.071     2.079     2.255
    76   1 H        0.927     0.089     1.889     2.149
    77   1 H        0.861     0.230     0.965     1.539
    78   1 H        0.861     0.230     0.965     1.539
    79   1 H        0.861     0.227     0.979     1.550
    80   1 H        0.927     0.082     1.961     2.190
    81   1 H        0.927     0.068     2.108     2.270
    82   1 H        0.927     0.077     2.005     2.214
    83   1 H        0.927     0.071     2.074     2.252
    84   1 H        0.927     0.065     2.142     2.289
    85   1 H        0.927     0.070     2.084     2.257
    86   1 H        0.927     0.060     2.203     2.321
    87   1 H        0.927     0.062     2.171     2.304
    88   1 H        0.861     0.211     1.050     1.605
    89   1 H        0.927     0.087     1.908     2.160
    90   1 H        0.927     0.057     2.234     2.337
    91   1 H        0.927     0.071     2.076     2.253
    92   1 H        0.926     0.036     2.507     2.476
    93   1 H        0.927     0.042     2.420     2.433
    94   1 H        0.926     0.041     2.436     2.441
    95   1 H        0.927     0.043     2.409     2.427
    96   1 H        0.927     0.045     2.386     2.416
    97   1 H        0.927     0.049     2.326     2.385
    98   1 H        0.927     0.044     2.393     2.419
    99   1 H        0.861     0.195     1.133     1.668
   100   1 H        0.927     0.093     1.848     2.126
   101   1 H        0.927     0.062     2.180     2.309
   102   1 H        0.927     0.055     2.255     2.348
   103   1 H        0.927     0.069     2.097     2.264
   104   1 H        0.927     0.062     2.170     2.303
   105   1 H        0.927     0.072     2.059     2.244
   106   1 H        0.927     0.057     2.235     2.338
   107   1 H        0.927     0.063     2.161     2.299
   108   1 H        0.861     0.208     1.067     1.618
   109   1 H        0.927     0.103     1.761     2.075
   110   1 H        0.926     0.074     2.044     2.236
   111   1 H        0.927     0.078     2.000     2.212
   112   1 H        0.929     0.064     2.153     2.294
   113   1 H        0.861     0.212     1.046     1.602
   114   1 H        0.926     0.088     1.896     2.153
   115   1 H        0.926     0.072     2.063     2.246
   116   1 H        0.927     0.083     1.952     2.185
   117   1 H        0.929     0.046     2.368     2.406
   118   1 H        0.861     0.208     1.066     1.617
   119   1 H        0.927     0.078     1.995     2.209
   120   1 H        0.926     0.067     2.120     2.277
   121   1 H        0.927     0.066     2.128     2.281
   122   1 H        0.861     0.220     1.008     1.573
   123   1 H        0.927     0.102     1.764     2.077
   124   1 H        0.929     0.075     2.034     2.230
   125   1 H        0.927     0.082     1.957     2.188
   126   1 H        0.927     0.077     2.015     2.220
   127   1 H        0.927     0.081     1.972     2.196
   128   1 H        0.927     0.073     2.054     2.241
   129   1 H        0.927     0.089     1.887     2.148
   130   1 H        0.927     0.095     1.831     2.116
   131   1 H        0.861     0.248     0.893     1.480
   132   1 H        0.861     0.253     0.872     1.463
   133   1 H        0.861     0.251     0.881     1.470
   134   1 H        0.861     0.255     0.863     1.456
   135   1 H        0.860     0.230     0.964     1.538
   136   1 H        0.858     0.199     1.110     1.651

 Mol. C6AA /au·bohr⁶  :     197327.887173
 Mol. C8AA /au·bohr⁸  :    4671135.952144
 Mol. α(0) /au        :        670.903875


Wiberg/Mayer (AO) data.
largest (>0.10) Wiberg bond orders for each atom

 ---------------------------------------------------------------------------
     #   Z sym  total        # sym  WBO       # sym  WBO       # sym  WBO
 ---------------------------------------------------------------------------
     1   7 N    2.984 --     2 C    1.008    72 H    0.964    73 H    0.955
     2   6 C    3.985 --     1 N    1.008     5 C    0.972    74 H    0.963
                             3 C    0.943
     3   6 C    3.946 --     4 O    1.631     9 N    1.303     2 C    0.943
     4   8 O    1.958 --     3 C    1.631     9 N    0.198
     5   6 C    3.993 --    75 H    0.973     2 C    0.972     6 C    0.964
                            76 H    0.952
     6   6 C    3.946 --     7 O    1.645     8 N    1.311     5 C    0.964
     7   8 O    1.955 --     6 C    1.645     8 N    0.200
     8   7 N    3.400 --     6 C    1.311    77 H    0.928    78 H    0.927
                             7 O    0.200
     9   7 N    3.466 --     3 C    1.303    10 C    0.973    79 H    0.917
                             4 O    0.198
    10   6 C    3.964 --    13 C    0.981     9 N    0.973    80 H    0.955
                            11 C    0.936
    11   6 C    3.947 --    12 O    1.618    17 N    1.308    10 C    0.936
    12   8 O    1.958 --    11 C    1.618    17 N    0.194
    13   6 C    3.989 --    14 C    1.008    10 C    0.981    81 H    0.969
                            82 H    0.968
    14   6 C    3.979 --    13 C    1.008    15 S    0.995    84 H    0.970
                            83 H    0.970
    15  16 S    2.100 --    16 C    1.012    14 C    0.995
    16   6 C    3.976 --    15 S    1.012    87 H    0.981    86 H    0.979
                            85 H    0.976
    17   7 N    3.469 --    11 C    1.308    18 C    0.967    88 H    0.918
                            12 O    0.194
    18   6 C    3.958 --    21 C    0.979    17 N    0.967    89 H    0.938
                            19 C    0.937
    19   6 C    3.948 --    20 O    1.652    25 N    1.285    18 C    0.937
    20   8 O    1.963 --    19 C    1.652    25 N    0.194
    21   6 C    3.986 --    22 C    0.986    18 C    0.979    90 H    0.976
                            91 H    0.963
    22   6 C    3.993 --    23 C    1.011    24 C    1.008    21 C    0.986
                            92 H    0.973
    23   6 C    3.995 --    22 C    1.011    95 H    0.984    93 H    0.983
                            94 H    0.976
    24   6 C    3.994 --    22 C    1.008    98 H    0.987    97 H    0.985
                            96 H    0.985
    25   7 N    3.460 --    19 C    1.285    26 C    0.975    99 H    0.928
                            20 O    0.194
    26   6 C    3.960 --    29 C    0.981    25 N    0.975   100 H    0.949
                            27 C    0.932
    27   6 C    3.950 --    28 O    1.639    33 N    1.306    26 C    0.932
    28   8 O    1.960 --    27 C    1.639    33 N    0.199
    29   6 C    3.989 --    30 C    1.007    26 C    0.981   101 H    0.973
                           102 H    0.968
    30   6 C    3.980 --    29 C    1.007    31 S    0.994   104 H    0.972
                           103 H    0.970
    31  16 S    2.082 --    32 C    1.012    30 C    0.994
    32   6 C    3.974 --    31 S    1.012   106 H    0.982   107 H    0.982
                           105 H    0.979
    33   7 N    3.474 --    27 C    1.306    34 C    0.974   108 H    0.912
                            28 O    0.199
    34   6 C    3.956 --    33 N    0.974    37 C    0.955    35 C    0.944
                           109 H    0.943
    35   6 C    3.951 --    36 O    1.627    43 N    1.309    34 C    0.944
    36   8 O    1.944 --    35 C    1.627    43 N    0.197
    37   6 C    3.989 --    38 C    1.016   110 H    0.959    34 C    0.955
                           111 H    0.954
    38   6 C    3.897 --    40 C    1.508    39 N    1.184    37 C    1.016
                            41 C    0.119
    39   7 N    3.002 --    41 C    1.620    38 C    1.184    42 N    0.112
    40   6 C    3.897 --    38 C    1.508    42 N    1.216   112 H    0.960
                            41 C    0.121
    41   6 C    3.461 --    39 N    1.620    42 N    1.556    40 C    0.121
                            38 C    0.119
    42   7 N    2.953 --    41 C    1.556    40 C    1.216    39 N    0.112
    43   7 N    3.474 --    35 C    1.309    44 C    0.968   113 H    0.910
                            36 O    0.197
    44   6 C    3.958 --    43 N    0.968    47 C    0.965    45 C    0.944
                           114 H    0.939
    45   6 C    3.950 --    46 O    1.611    53 N    1.321    44 C    0.944
    46   8 O    1.926 --    45 C    1.611    53 N    0.197
    47   6 C    3.986 --    48 C    1.015   115 H    0.965    44 C    0.965
                           116 H    0.965
    48   6 C    3.912 --    50 C    1.569    49 N    1.200    47 C    1.015
    49   7 N    3.004 --    51 C    1.630    48 C    1.200
    50   6 C    3.906 --    48 C    1.569    52 N    1.171   117 H    0.971
                            51 C    0.118
    51   6 C    3.144 --    49 N    1.630    52 N    1.314    50 C    0.118
    52   7 N    3.556 --    51 C    1.314    50 C    1.171   136 H    0.927
    53   7 N    3.492 --    45 C    1.321    54 C    0.968   118 H    0.928
                            46 O    0.197
    54   6 C    3.959 --    57 C    0.987    53 N    0.968   119 H    0.955
                            55 C    0.933
    55   6 C    3.950 --    56 O    1.640    61 N    1.304    54 C    0.933
    56   8 O    1.947 --    55 C    1.640    61 N    0.197
    57   6 C    3.895 --    54 C    0.987   120 H    0.963   121 H    0.953
                            58 C    0.890
    58   6 C    3.922 --    60 O    1.512    59 O    1.496    57 C    0.890
    59   8 O    1.773 --    58 C    1.496    60 O    0.220
    60   8 O    1.784 --    58 C    1.512    59 O    0.220
    61   7 N    3.466 --    55 C    1.304    62 C    0.976   122 H    0.919
                            56 O    0.197
    62   6 C    3.963 --    61 N    0.976    63 C    0.975    65 C    0.966
                           123 H    0.939
    63   6 C    3.896 --    64 O    1.905    62 C    0.975   124 H    0.950
    64   8 O    2.046 --    63 C    1.905
    65   6 C    3.983 --    66 C    1.003   126 H    0.972   125 H    0.971
                            62 C    0.966
    66   6 C    3.988 --    67 C    1.004    65 C    1.003   128 H    0.975
                           127 H    0.968
    67   6 C    3.953 --    66 C    1.004    68 N    0.976   130 H    0.961
                           129 H    0.959
    68   7 N    3.474 --    69 C    1.325    67 C    0.976   135 H    0.915
                            71 N    0.103    70 N    0.103
    69   6 C    3.977 --    68 N    1.325    70 N    1.315    71 N    1.308
    70   7 N    3.390 --    69 C    1.315   132 H    0.918   131 H    0.912
                            68 N    0.103
    71   7 N    3.381 --    69 C    1.308   133 H    0.919   134 H    0.916
                            68 N    0.103
    72   1 H    0.977 --     1 N    0.964
    73   1 H    0.970 --     1 N    0.955
    74   1 H    0.998 --     2 C    0.963
    75   1 H    0.995 --     5 C    0.973
    76   1 H    0.992 --     5 C    0.952
    77   1 H    0.947 --     8 N    0.928
    78   1 H    0.947 --     8 N    0.927
    79   1 H    0.948 --     9 N    0.917
    80   1 H    0.993 --    10 C    0.955
    81   1 H    0.995 --    13 C    0.969
    82   1 H    0.994 --    13 C    0.968
    83   1 H    0.994 --    14 C    0.970
    84   1 H    0.996 --    14 C    0.970
    85   1 H    0.995 --    16 C    0.976
    86   1 H    0.996 --    16 C    0.979
    87   1 H    0.995 --    16 C    0.981
    88   1 H    0.955 --    17 N    0.918
    89   1 H    0.992 --    18 C    0.938
    90   1 H    0.996 --    21 C    0.976
    91   1 H    0.995 --    21 C    0.963
    92   1 H    0.998 --    22 C    0.973
    93   1 H    0.998 --    23 C    0.983
    94   1 H    0.998 --    23 C    0.976
    95   1 H    0.998 --    23 C    0.984
    96   1 H    0.998 --    24 C    0.985
    97   1 H    0.997 --    24 C    0.985
    98   1 H    0.998 --    24 C    0.987
    99   1 H    0.962 --    25 N    0.928
   100   1 H    0.991 --    26 C    0.949
   101   1 H    0.996 --    29 C    0.973
   102   1 H    0.997 --    29 C    0.968
   103   1 H    0.994 --    30 C    0.970
   104   1 H    0.996 --    30 C    0.972
   105   1 H    0.995 --    32 C    0.979
   106   1 H    0.995 --    32 C    0.982
   107   1 H    0.994 --    32 C    0.982
   108   1 H    0.957 --    33 N    0.912
   109   1 H    0.988 --    34 C    0.943
   110   1 H    0.993 --    37 C    0.959
   111   1 H    0.990 --    37 C    0.954
   112   1 H    0.996 --    40 C    0.960
   113   1 H    0.955 --    43 N    0.910
   114   1 H    0.992 --    44 C    0.939
   115   1 H    0.991 --    47 C    0.965
   116   1 H    0.991 --    47 C    0.965
   117   1 H    0.997 --    50 C    0.971
   118   1 H    0.957 --    53 N    0.928
   119   1 H    0.994 --    54 C    0.955
   120   1 H    0.994 --    57 C    0.963
   121   1 H    0.993 --    57 C    0.953
   122   1 H    0.951 --    61 N    0.919
   123   1 H    0.989 --    62 C    0.939
   124   1 H    0.994 --    63 C    0.950
   125   1 H    0.993 --    65 C    0.971
   126   1 H    0.994 --    65 C    0.972
   127   1 H    0.993 --    66 C    0.968
   128   1 H    0.995 --    66 C    0.975
   129   1 H    0.992 --    67 C    0.959
   130   1 H    0.990 --    67 C    0.961
   131   1 H    0.939 --    70 N    0.912
   132   1 H    0.936 --    70 N    0.918
   133   1 H    0.937 --    71 N    0.919
   134   1 H    0.934 --    71 N    0.916
   135   1 H    0.947 --    68 N    0.915
   136   1 H    0.960 --    52 N    0.927
 ---------------------------------------------------------------------------

Topologies differ in total number of bonds
Writing topology from bond orders to xtbtopo.mol

molecular dipole:
                 x           y           z       tot (Debye)
 q only:        2.282      -9.596      20.760
   full:        2.430      -8.322      20.821      57.326
molecular quadrupole (traceless):
                xx          xy          yy          xz          yz          zz
 q only:      346.634   -1032.260   -2324.138    2510.594    1837.575    1977.504
  q+dip:      265.204    -868.755   -2126.914    2516.855    1904.976    1861.710
   full:      263.881    -867.348   -2126.102    2518.969    1905.207    1862.221


           -------------------------------------------------
          | TOTAL ENERGY             -221.001625037603 Eh   |
          | GRADIENT NORM               0.267656813259 Eh/α |
          | HOMO-LUMO GAP               0.047392222305 eV   |
           -------------------------------------------------
########################################################################
[WARNING] Runtime exception occurred
-3- restart_readRestart: Dimension missmatch in restart file.
-2- restart_readRestart: Multiplicity missmatch in restart file.
-1- restart_readRestart: Number of electron missmatch in restart file.
########################################################################

------------------------------------------------------------------------
 * finished run on 2025/05/05 at 16:50:40.584     
------------------------------------------------------------------------
 total:
 * wall-time:     0 d,  0 h,  0 min,  0.778 sec
 *  cpu-time:     0 d,  0 h,  0 min, 22.148 sec
 * ratio c/w:    28.459 speedup
 SCF:
 * wall-time:     0 d,  0 h,  0 min,  0.767 sec
 *  cpu-time:     0 d,  0 h,  0 min, 21.877 sec
 * ratio c/w:    28.534 speedup

