      -----------------------------------------------------------      
     |                   =====================                   |     
     |                           x T B                           |     
     |                   =====================                   |     
     |                         S. Grimme                         |     
     |          Mulliken Center for Theoretical Chemistry        |     
     |                    University of Bonn                     |     
      -----------------------------------------------------------      

   * xtb version 6.7.1 (edcfbbe) compiled by 'conda@afd1a870197c' on 2025-04-11

   xtb is free software: you can redistribute it and/or modify it under
   the terms of the GNU Lesser General Public License as published by
   the Free Software Foundation, either version 3 of the License, or
   (at your option) any later version.
   
   xtb is distributed in the hope that it will be useful,
   but WITHOUT ANY WARRANTY; without even the implied warranty of
   MERCHANTABILITY or FITNESS FOR A PARTICULAR PURPOSE.  See the
   GNU Lesser General Public License for more details.
   
   Cite this work as:
   * C. Bannwarth, E. Caldeweyher, S. Ehlert, A. Hansen, P. Pracht,
     J. Seibert, S. Spicher, S. Grimme, WIREs Comput. Mol. Sci., 2020, 11,
     e01493. DOI: 10.1002/wcms.1493
   
   for GFN2-xTB:
   * C. Bannwarth, S. Ehlert and S. Grimme., J. Chem. Theory Comput., 2019,
     15, 1652-1671. DOI: 10.1021/acs.jctc.8b01176
   for GFN1-xTB:
   * S. Grimme, C. Bannwarth, P. Shushkov, J. Chem. Theory Comput., 2017,
     13, 1989-2009. DOI: 10.1021/acs.jctc.7b00118
   for GFN0-xTB:
   * P. Pracht, E. Caldeweyher, S. Ehlert, S. Grimme, ChemRxiv, 2019, preprint.
     DOI: 10.26434/chemrxiv.8326202.v1
   for GFN-FF:
   * S. Spicher and S. Grimme, Angew. Chem. Int. Ed., 2020, 59, 15665-15673.
     DOI: 10.1002/anie.202004239
   
   for ALPB and GBSA implicit solvation:
   * S. Ehlert, M. Stahn, S. Spicher, S. Grimme, J. Chem. Theory Comput.,
     2021, 17, 4250-4261. DOI: 10.1021/acs.jctc.1c00471
   
   for ddCOSMO and CPCM-X implicit solvation:
   * M. Stahn, S. Ehlert, S. Grimme, J. Phys. Chem. A,
     2023, XX, XXXX-XXXX. DOI: 10.1021/acs.jpca.3c04382
   
   for DFT-D4:
   * E. Caldeweyher, C. Bannwarth and S. Grimme, J. Chem. Phys., 2017,
     147, 034112. DOI: 10.1063/1.4993215
   * E. Caldeweyher, S. Ehlert, A. Hansen, H. Neugebauer, S. Spicher,
     C. Bannwarth and S. Grimme, J. Chem. Phys., 2019, 150, 154122.
     DOI: 10.1063/1.5090222
   * E. Caldeweyher, J.-M. Mewes, S. Ehlert and S. Grimme, Phys. Chem. Chem. Phys.
     2020, 22, 8499-8512. DOI: 10.1039/D0CP00502A
   
   for sTDA-xTB:
   * S. Grimme and C. Bannwarth, J. Chem. Phys., 2016, 145, 054103.
     DOI: 10.1063/1.4959605
   
   in the mass-spec context:
   * V. Asgeirsson, C. Bauer and S. Grimme, Chem. Sci., 2017, 8, 4879.
     DOI: 10.1039/c7sc00601b
   * J. Koopman and S. Grimme, ACS Omega 2019, 4, 12, 15120-15133.
     DOI: 10.1021/acsomega.9b02011
   
   for metadynamics refer to:
   * S. Grimme, J. Chem. Theory Comput., 2019, 155, 2847-2862
     DOI: 10.1021/acs.jctc.9b00143
   
   for SPH calculations refer to:
   * S. Spicher and S. Grimme, J. Chem. Theory Comput., 2021, 17, 1701-1714
     DOI: 10.1021/acs.jctc.0c01306
   
   for ONIOM refer to:
   * C. Plett, A. Katbashev, S. Ehlert, S. Grimme, M. Bursch,
     Phys. Chem. Chem. Phys., 2023, 25, 17860-17868. DOI: 10.1039/D3CP02178E
   
   for DIPRO refer to:
   * J. Kohn, N. Gildemeister, S. Grimme, D. Fazzi, A. Hansen,
     J. Chem. Phys., 2023, just accepted.
   
   for PTB refer to:
   * S. Grimme, M. Mueller, A. Hansen, J. Chem. Phys., 2023, 158, 124111.
     DOI: 10.1063/5.0137838
   
   with help from (in alphabetical order)
   P. Atkinson, C. Bannwarth, F. Bohle, G. Brandenburg, E. Caldeweyher
   M. Checinski, S. Dohm, S. Ehlert, S. Ehrlich, I. Gerasimov, C. Hölzer
   A. Katbashev, J. Kohn, J. Koopman, C. Lavigne, S. Lehtola, F. März, M. Müller,
   F. Musil, H. Neugebauer, J. Pisarek, C. Plett, P. Pracht, F. Pultar,
   J. Seibert, P. Shushkov, S. Spicher, M. Stahn, M. Steiner, T. Strunk,
   J. Stückrath, T. Rose, and J. Unsleber
   
 * started run on 2025/05/05 at 17:13:11.673     
   ID    Z sym.   atoms
    1    7 N      1, 8, 14, 20, 29, 40, 45, 54, 62, 68, 71, 72, 80, 81, 86,
                  97, 106
    2    6 C      2, 3, 5, 7, 9, 10, 12, 15, 16, 18, 21, 22, 24-26, 30, 31,
                  33-39, 41, 42, 44, 46, 47, 49-51, 55, 56, 58-61, 63, 64,
                  66, 67, 69, 70, 73, 74, 76-78, 82, 83, 85, 87, 88, 90-96,
                  98, 99, 101-103, 107, 108, 110, 112
    3    8 O      4, 6, 11, 13, 17, 19, 23, 27, 28, 32, 43, 48, 52, 53, 57,
                  65, 75, 79, 84, 89, 100, 104, 105, 109, 111
    4    1 H      113-231

           -------------------------------------------------
          |                Calculation Setup                |
           -------------------------------------------------

          program call               : xtb /tmp/tmpi0fasrb4/HIE/input.xyz --alpb ether --chrg -5 --input /tmp/tmpi0fasrb4/HIE/constraints.inp --gfn 2
          hostname                   : fedora
          coordinate file            : /tmp/tmpi0fasrb4/HIE/input.xyz
          omp threads                :                    32


molecular fragmentation (1/2 indicates fragments):
111111122222222222222222222222222222222222222222222222222222222222222222
222222222222222222222222222222222222222222222222111111111222222222222222
222222222222222222222222222222222222222222222222222222222222222222222222
222222222222222
# atoms in fragment 1/2:    16   215
 fragment masses (1/2) :      103.12     1495.68
CMA distance (Bohr)    :  12.169
constraining FC (au)   :  0.0500
########################################################################
[WARNING] Please study the warnings concerning your input carefully
-1- readin_getIntValue: could not parse 'S'
########################################################################

           -------------------------------------------------
          |                 G F N 2 - x T B                 |
           -------------------------------------------------

        Reference                      10.1021/acs.jctc.8b01176
      * Hamiltonian:
        H0-scaling (s, p, d)           1.850000    2.230000    2.230000
        zeta-weighting                 0.500000
      * Dispersion:
        s8                             2.700000
        a1                             0.520000
        a2                             5.000000
        s9                             5.000000
      * Repulsion:
        kExp                           1.500000    1.000000
        rExp                           1.000000
      * Coulomb:
        alpha                          2.000000
        third order                    shell-resolved
        anisotropic                    true
        a3                             3.000000
        a5                             4.000000
        cn-shift                       1.200000
        cn-exp                         4.000000
        max-rad                        5.000000

      * Solvation model:               ALPB
        Solvent                        ether
        Parameter file                 internal GFN2-xTB/ALPB
        Dielectric constant                4.3300E+00
        Reference state                gsolv [1 M gas/solution]
        Free energy shift                  4.9534E-03 Eh       3.1083E+00 kcal/mol
        Temperature                        2.9815E+02 K
        Density                            7.1300E-01 kg/L
        Solvent mass                       7.4120E+01 g/mol
        Interaction kernel             P16
        Born radius scaling (c1)           1.5847E+00
        Born radii integrator          GBOBC
        Born offset                        0.0000E+00 a0       0.0000E+00 AA
        H-bond correction              true
        Ion screening                  false
        Surface tension                    1.0000E-05 Eh       1.5569E+01 dyn/cm
        Grid points                               230 per atom

          ...................................................
          :                      SETUP                      :
          :.................................................:
          :  # basis functions                 567          :
          :  # atomic orbitals                 567          :
          :  # shells                          343          :
          :  # electrons                       639          :
          :  max. iterations                   250          :
          :  Hamiltonian                  GFN2-xTB          :
          :  restarted?                      false          :
          :  GBSA solvation                   true          :
          :  PC potential                    false          :
          :  electronic temp.          300.0000000     K    :
          :  accuracy                    1.0000000          :
          :  -> integral cutoff          0.2500000E+02      :
          :  -> integral neglect         0.1000000E-07      :
          :  -> SCF convergence          0.1000000E-05 Eh   :
          :  -> wf. convergence          0.1000000E-03 e    :
          :  Broyden damping             0.4000000          :
          :  net charge                         -5          :
          :  unpaired electrons                  0          :
          ...................................................

 iter      E             dE          RMSdq      gap      omega  full diag
   1   -366.4373810 -0.366437E+03  0.450E+00    0.00       0.0  T
   2   -366.4167792  0.206018E-01  0.299E+00    0.87       1.0  T
   3   -366.8077148 -0.390936E+00  0.228E+00    0.48       1.0  T
   4   -367.3964284 -0.588714E+00  0.143E+00    0.64       1.0  T
   5   -367.5053941 -0.108966E+00  0.989E-01    0.05       1.0  T
   6   -367.1190617  0.386332E+00  0.137E+00    0.10       1.0  T
   7   -367.4651238 -0.346062E+00  0.889E-01    0.38       1.0  T
   8   -367.5359378 -0.708139E-01  0.769E-01    0.11       1.0  T
   9   -367.1621441  0.373794E+00  0.127E+00    0.02       1.0  T
  10   -367.5824786 -0.420334E+00  0.589E-01    0.06       1.0  T
  11   -367.6094714 -0.269928E-01  0.500E-01    0.01       1.0  T
  12   -367.6153775 -0.590607E-02  0.472E-01    0.06       1.0  T
  13   -367.5655444  0.498331E-01  0.618E-01    0.11       1.0  T
  14   -367.5982381 -0.326938E-01  0.519E-01    0.03       1.0  T
  15   -367.6348444 -0.366063E-01  0.381E-01    0.05       1.0  T
  16   -367.6088207  0.260238E-01  0.475E-01    0.09       1.0  T
  17   -367.6473204 -0.384997E-01  0.322E-01    0.01       1.0  T
  18   -367.6577617 -0.104413E-01  0.257E-01    0.01       1.0  T
  19   -367.6622797 -0.451796E-02  0.234E-01    0.02       1.0  T
  20   -367.6580588  0.422082E-02  0.265E-01    0.02       1.0  T
  21   -367.6749109 -0.168521E-01  0.958E-02    0.01       1.0  T
  22   -367.6766456 -0.173465E-02  0.702E-02    0.01       1.0  T
  23   -367.6778535 -0.120787E-02  0.290E-02    0.01       1.0  T
  24   -367.6780432 -0.189798E-03  0.141E-02    0.01       1.0  T
  25   -367.6780339  0.930094E-05  0.147E-02    0.01       1.0  T
  26   -367.6780965 -0.625773E-04  0.442E-03    0.01       1.5  T
  27   -367.6780999 -0.342245E-05  0.273E-03    0.01       2.4  T
  28   -367.6781017 -0.176736E-05  0.103E-03    0.01       6.4  T
  29   -367.6781018 -0.751473E-07  0.857E-04    0.01       7.7  T
  30   -367.6781019 -0.148167E-06  0.521E-04    0.01      12.6  T

   *** convergence criteria satisfied after 30 iterations ***

         #    Occupation            Energy/Eh            Energy/eV
      -------------------------------------------------------------
         1        2.0000           -0.6449810             -17.5508
       ...           ...                  ...                  ...
       314        2.0000           -0.2454739              -6.6797
       315        2.0000           -0.2401494              -6.5348
       316        2.0000           -0.2390196              -6.5041
       317        2.0000           -0.2026335              -5.5139
       318        2.0000           -0.1956434              -5.3237
       319        1.8019           -0.1733404              -4.7168
       320        0.3423           -0.1690947              -4.6013 (HOMO)
       321        0.2587           -0.1687524              -4.5920 (LUMO)
       322        0.2251           -0.1685908              -4.5876
       323        0.1969           -0.1684393              -4.5835
       324        0.0782           -0.1674652              -4.5570
       325        0.0539           -0.1670912              -4.5468
       ...           ...                  ...                  ...
       567                          1.0693299              29.0979
      -------------------------------------------------------------
                  HL-Gap            0.0003423 Eh            0.0093 eV
             Fermi-level           -0.1708933 Eh           -4.6502 eV

 SCC (total)                   0 d,  0 h,  0 min,  1.635 sec
 SCC setup                      ...        0 min,  0.004 sec (  0.215%)
 Dispersion                     ...        0 min,  0.011 sec (  0.656%)
 classical contributions        ...        0 min,  0.001 sec (  0.033%)
 integral evaluation            ...        0 min,  0.022 sec (  1.349%)
 iterations                     ...        0 min,  1.531 sec ( 93.641%)
 molecular gradient             ...        0 min,  0.060 sec (  3.658%)
 printout                       ...        0 min,  0.007 sec (  0.446%)

         :::::::::::::::::::::::::::::::::::::::::::::::::::::
         ::                     SUMMARY                     ::
         :::::::::::::::::::::::::::::::::::::::::::::::::::::
         :: total energy            -362.555624374516 Eh    ::
         :: total w/o Gsasa/hb      -362.476251304067 Eh    ::
         :: gradient norm              0.870986413641 Eh/a0 ::
         :: HOMO-LUMO gap              0.009313181759 eV    ::
         ::.................................................::
         :: SCC energy              -367.650134081369 Eh    ::
         :: -> isotropic ES            2.263042305158 Eh    ::
         :: -> anisotropic ES          0.007442661154 Eh    ::
         :: -> anisotropic XC          0.127910584368 Eh    ::
         :: -> dispersion             -0.309153844969 Eh    ::
         :: -> Gsolv                  -0.942426170088 Eh    ::
         ::    -> Gelec               -0.863053099640 Eh    ::
         ::    -> Gsasa               -0.072731243248 Eh    ::
         ::    -> Ghb                 -0.011595264778 Eh    ::
         ::    -> Gshift               0.004953437577 Eh    ::
         :: repulsion energy           5.094509706853 Eh    ::
         :: add. restraining           0.000000000000 Eh    ::
         :: total charge              -5.000000000141 e     ::
         :::::::::::::::::::::::::::::::::::::::::::::::::::::

           -------------------------------------------------
          |                Property Printout                |
           -------------------------------------------------

    * Orbital Energies and Occupations

         #    Occupation            Energy/Eh            Energy/eV
      -------------------------------------------------------------
         1        2.0000           -0.6449810             -17.5508
       ...           ...                  ...                  ...
       308        2.0000           -0.2758798              -7.5071
       309        2.0000           -0.2703451              -7.3565
       310        2.0000           -0.2670018              -7.2655
       311        2.0000           -0.2667042              -7.2574
       312        2.0000           -0.2548088              -6.9337
       313        2.0000           -0.2475490              -6.7362
       314        2.0000           -0.2454739              -6.6797
       315        2.0000           -0.2401494              -6.5348
       316        2.0000           -0.2390196              -6.5041
       317        2.0000           -0.2026335              -5.5139
       318        2.0000           -0.1956434              -5.3237
       319        1.8019           -0.1733404              -4.7168
       320        0.3423           -0.1690947              -4.6013 (HOMO)
       321        0.2587           -0.1687524              -4.5920 (LUMO)
       322        0.2251           -0.1685908              -4.5876
       323        0.1969           -0.1684393              -4.5835
       324        0.0782           -0.1674652              -4.5570
       325        0.0539           -0.1670912              -4.5468
       326        0.0292           -0.1664900              -4.5304
       327        0.0134           -0.1657397              -4.5100
       328        0.0004           -0.1622754              -4.4157
       329        0.0000           -0.1598200              -4.3489
       330                         -0.1528220              -4.1585
       331                         -0.1500298              -4.0825
       ...                                ...                  ...
       567                          1.0693299              29.0979
      -------------------------------------------------------------
                  HL-Gap            0.0003423 Eh            0.0093 eV
             Fermi-level           -0.1708933 Eh           -4.6502 eV

     #   Z          covCN         q      C6AA      α(0)
     1   7 N        2.631    -0.361    29.312     8.041
     2   6 C        3.784     0.029    20.097     6.386
     3   6 C        2.777     0.084    26.101     8.368
     4   8 O        0.856    -0.433    22.353     6.339
     5   6 C        3.727     0.110    18.870     6.202
     6   8 O        1.652    -0.469    22.231     6.365
     7   6 C        3.757    -0.113    22.710     6.795
     8   7 N        2.630    -0.376    29.724     8.097
     9   6 C        3.788     0.029    20.097     6.385
    10   6 C        2.760     0.270    22.434     7.756
    11   8 O        0.859    -0.516    24.150     6.589
    12   6 C        3.682     0.091    19.264     6.285
    13   8 O        1.654    -0.456    21.962     6.326
    14   7 N        2.690    -0.156    24.370     7.332
    15   6 C        3.797     0.029    20.084     6.381
    16   6 C        2.764     0.165    24.431     8.095
    17   8 O        0.856    -0.446    22.613     6.376
    18   6 C        3.681     0.072    19.578     6.337
    19   8 O        1.652    -0.474    22.347     6.381
    20   7 N        2.630    -0.362    29.350     8.046
    21   6 C        3.785     0.049    19.765     6.333
    22   6 C        2.764     0.172    24.288     8.071
    23   8 O        0.856    -0.459    22.891     6.415
    24   6 C        3.809    -0.032    21.142     6.545
    25   6 C        3.808    -0.076    21.944     6.668
    26   6 C        2.689     0.363    20.846     7.472
    27   8 O        0.857    -0.658    27.592     7.043
    28   8 O        0.857    -0.640    27.111     6.981
    29   7 N        2.630    -0.371    29.585     8.078
    30   6 C        3.787     0.042    19.874     6.350
    31   6 C        2.754     0.260    22.614     7.787
    32   8 O        0.859    -0.519    24.220     6.598
    33   6 C        3.811    -0.062    21.685     6.628
    34   6 C        2.960    -0.006    28.178     8.707
    35   6 C        2.919    -0.055    29.372     8.887
    36   6 C        2.920    -0.054    29.341     8.883
    37   6 C        2.915    -0.056    29.403     8.892
    38   6 C        2.915    -0.048    29.203     8.861
    39   6 C        2.916    -0.059    29.454     8.900
    40   7 N        2.687    -0.185    25.009     7.427
    41   6 C        3.794     0.037    19.968     6.363
    42   6 C        2.750     0.273    22.382     7.747
    43   8 O        0.858    -0.498    23.749     6.534
    44   6 C        3.759    -0.119    22.821     6.811
    45   7 N        2.686    -0.185    25.012     7.428
    46   6 C        3.795     0.023    20.199     6.400
    47   6 C        2.755     0.262    22.584     7.782
    48   8 O        0.858    -0.506    23.925     6.558
    49   6 C        3.810    -0.057    21.597     6.615
    50   6 C        3.805    -0.093    22.266     6.717
    51   6 C        2.687     0.358    20.920     7.485
    52   8 O        0.856    -0.638    27.075     6.976
    53   8 O        0.856    -0.642    27.166     6.988
    54   7 N        2.690    -0.178    24.844     7.403
    55   6 C        3.802     0.024    20.165     6.393
    56   6 C        2.761     0.276    22.336     7.740
    57   8 O        0.859    -0.511    24.035     6.573
    58   6 C        3.855    -0.023    20.942     6.509
    59   6 C        3.810    -0.066    21.760     6.640
    60   6 C        3.757    -0.109    22.637     6.783
    61   6 C        3.758    -0.108    22.623     6.781
    62   7 N        2.689    -0.183    24.975     7.422
    63   6 C        3.803     0.040    19.906     6.352
    64   6 C        2.755     0.283    22.216     7.718
    65   8 O        0.858    -0.506    23.919     6.557
    66   6 C        3.813    -0.038    21.240     6.560
    67   6 C        3.091     0.022    27.402     8.580
    68   7 N        1.988    -0.400    31.295     8.297
    69   6 C        3.054    -0.015    28.338     8.730
    70   6 C        2.104    -0.107    33.814     9.396
    71   7 N        2.839    -0.143    24.093     7.290
    72   7 N        2.688    -0.173    24.753     7.389
    73   6 C        3.796     0.035    19.997     6.368
    74   6 C        2.755     0.273    22.382     7.747
    75   8 O        0.858    -0.497    23.720     6.530
    76   6 C        3.808    -0.062    21.679     6.628
    77   6 C        3.808    -0.096    22.324     6.726
    78   6 C        2.742     0.283    22.207     7.716
    79   8 O        0.858    -0.507    23.946     6.561
    80   7 N        2.639    -0.271    27.015     7.719
    81   7 N        2.686    -0.175    24.787     7.394
    82   6 C        3.794     0.030    20.082     6.382
    83   6 C        2.756     0.272    22.395     7.749
    84   8 O        0.859    -0.508    23.954     6.562
    85   6 C        3.758    -0.125    22.942     6.829
    86   7 N        2.686    -0.169    24.667     7.376
    87   6 C        3.800     0.029    20.095     6.382
    88   6 C        2.755     0.268    22.481     7.764
    89   8 O        0.859    -0.504    23.869     6.550
    90   6 C        3.815    -0.070    21.830     6.650
    91   6 C        2.973     0.014    27.702     8.633
    92   6 C        2.933    -0.047    29.173     8.858
    93   6 C        2.932    -0.037    28.926     8.820
    94   6 C        2.923    -0.043    29.078     8.843
    95   6 C        2.927    -0.042    29.042     8.838
    96   6 C        2.929    -0.049    29.221     8.865
    97   7 N        2.689    -0.184    24.992     7.425
    98   6 C        3.803     0.028    20.094     6.382
    99   6 C        2.761     0.280    22.269     7.728
   100   8 O        0.859    -0.506    23.910     6.556
   101   6 C        3.808    -0.045    21.366     6.580
   102   6 C        3.806    -0.084    22.106     6.693
   103   6 C        2.688     0.366    20.792     7.462
   104   8 O        0.857    -0.626    26.776     6.938
   105   8 O        0.856    -0.643    27.198     6.992
   106   7 N        2.690    -0.171    24.701     7.381
   107   6 C        3.798     0.021    20.222     6.403
   108   6 C        2.762     0.155    24.625     8.127
   109   8 O        0.856    -0.467    23.063     6.439
   110   6 C        3.726     0.107    18.915     6.210
   111   8 O        1.652    -0.477    22.401     6.389
   112   6 C        3.757    -0.129    23.032     6.842
   113   1 H        0.980    -0.037     3.772     3.035
   114   1 H        0.980    -0.027     3.570     2.953
   115   1 H        0.980    -0.022     3.462     2.907
   116   1 H        0.980     0.004     2.981     2.698
   117   1 H        0.980     0.003     3.005     2.709
   118   1 H        0.980    -0.027     3.551     2.945
   119   1 H        0.980     0.022     2.698     2.567
   120   1 H        0.980    -0.039     3.823     3.055
   121   1 H        0.860     0.146     1.426     1.871
   122   1 H        0.860     0.151     1.397     1.852
   123   1 H        0.927     0.020     2.729     2.583
   124   1 H        0.929     0.076     2.025     2.225
   125   1 H        0.927     0.054     2.276     2.359
   126   1 H        0.804     0.291     0.750     1.360
   127   1 H        0.927     0.038     2.469     2.457
   128   1 H        0.926     0.046     2.371     2.408
   129   1 H        0.927     0.047     2.352     2.398
   130   1 H        0.860     0.159     1.342     1.815
   131   1 H        0.860     0.160     1.334     1.809
   132   1 H        0.926     0.020     2.735     2.586
   133   1 H        0.927     0.029     2.595     2.519
   134   1 H        0.927     0.040     2.453     2.449
   135   1 H        0.804     0.314     0.680     1.295
   136   1 H        0.861     0.233     0.950     1.527
   137   1 H        0.927     0.068     2.112     2.273
   138   1 H        0.929     0.019     2.743     2.590
   139   1 H        0.927     0.038     2.479     2.462
   140   1 H        0.927     0.081     1.968     2.193
   141   1 H        0.804     0.315     0.678     1.294
   142   1 H        0.860     0.141     1.463     1.895
   143   1 H        0.860     0.149     1.407     1.858
   144   1 H        0.926     0.004     2.986     2.702
   145   1 H        0.929     0.022     2.706     2.572
   146   1 H        0.927     0.040     2.451     2.448
   147   1 H        0.926     0.020     2.731     2.584
   148   1 H        0.927     0.012     2.862     2.646
   149   1 H        0.927     0.017     2.772     2.603
   150   1 H        0.860     0.142     1.455     1.890
   151   1 H        0.860     0.166     1.296     1.784
   152   1 H        0.927     0.022     2.708     2.573
   153   1 H        0.927     0.043     2.408     2.426
   154   1 H        0.926     0.050     2.320     2.382
   155   1 H        0.929     0.028     2.615     2.529
   156   1 H        0.929     0.016     2.794     2.614
   157   1 H        0.929     0.029     2.605     2.524
   158   1 H        0.929     0.025     2.660     2.550
   159   1 H        0.929     0.028     2.620     2.531
   160   1 H        0.861     0.222     1.002     1.568
   161   1 H        0.927     0.067     2.114     2.273
   162   1 H        0.927     0.058     2.218     2.329
   163   1 H        0.927     0.068     2.108     2.270
   164   1 H        0.926     0.067     2.117     2.275
   165   1 H        0.861     0.202     1.096     1.640
   166   1 H        0.927     0.074     2.043     2.235
   167   1 H        0.927     0.050     2.316     2.380
   168   1 H        0.927     0.053     2.288     2.365
   169   1 H        0.927     0.030     2.583     2.513
   170   1 H        0.926     0.032     2.553     2.499
   171   1 H        0.861     0.191     1.152     1.681
   172   1 H        0.927     0.076     2.020     2.222
   173   1 H        0.927     0.036     2.498     2.472
   174   1 H        0.927     0.037     2.492     2.469
   175   1 H        0.927     0.050     2.317     2.380
   176   1 H        0.927     0.051     2.312     2.378
   177   1 H        0.927     0.035     2.516     2.480
   178   1 H        0.927     0.053     2.287     2.365
   179   1 H        0.927     0.030     2.580     2.512
   180   1 H        0.926     0.049     2.338     2.391
   181   1 H        0.927     0.045     2.380     2.413
   182   1 H        0.861     0.220     1.009     1.574
   183   1 H        0.927     0.075     2.031     2.229
   184   1 H        0.927     0.018     2.761     2.598
   185   1 H        0.927     0.039     2.456     2.450
   186   1 H        0.929    -0.049     4.073     3.156
   187   1 H        0.861     0.211     1.052     1.606
   188   1 H        0.927     0.062     2.174     2.306
   189   1 H        0.927     0.064     2.147     2.291
   190   1 H        0.927     0.068     2.102     2.267
   191   1 H        0.927     0.058     2.223     2.331
   192   1 H        0.927     0.081     1.967     2.193
   193   1 H        0.861     0.224     0.990     1.559
   194   1 H        0.861     0.225     0.986     1.555
   195   1 H        0.861     0.223     0.997     1.564
   196   1 H        0.927     0.075     2.033     2.230
   197   1 H        0.927     0.066     2.125     2.280
   198   1 H        0.926     0.068     2.113     2.273
   199   1 H        0.927     0.065     2.138     2.286
   200   1 H        0.861     0.216     1.027     1.588
   201   1 H        0.927     0.084     1.935     2.175
   202   1 H        0.927     0.065     2.138     2.287
   203   1 H        0.927     0.058     2.221     2.331
   204   1 H        0.929     0.044     2.401     2.423
   205   1 H        0.929     0.036     2.496     2.470
   206   1 H        0.929     0.044     2.399     2.422
   207   1 H        0.929     0.036     2.498     2.472
   208   1 H        0.929     0.040     2.446     2.445
   209   1 H        0.861     0.226     0.984     1.554
   210   1 H        0.927     0.070     2.086     2.259
   211   1 H        0.927     0.038     2.472     2.459
   212   1 H        0.927     0.045     2.379     2.412
   213   1 H        0.927     0.030     2.582     2.513
   214   1 H        0.927     0.029     2.598     2.520
   215   1 H        0.861     0.209     1.059     1.612
   216   1 H        0.927     0.063     2.168     2.302
   217   1 H        0.929     0.011     2.876     2.652
   218   1 H        0.927     0.057     2.235     2.338
   219   1 H        0.804     0.314     0.679     1.295
   220   1 H        0.926     0.052     2.289     2.366
   221   1 H        0.927     0.051     2.306     2.375
   222   1 H        0.927     0.062     2.171     2.304
   223   1 H        0.995     0.083     1.941     2.177
   224   1 H        0.980     0.029     2.597     2.518
   225   1 H        0.980     0.021     2.707     2.571
   226   1 H        0.980    -0.006     3.146     2.771
   227   1 H        0.980    -0.005     3.139     2.769
   228   1 H        0.980     0.026     2.637     2.537
   229   1 H        0.980    -0.019     3.405     2.883
   230   1 H        0.980     0.037     2.486     2.464
   231   1 H        0.858     0.158     1.348     1.819

 Mol. C6AA /au·bohr⁶  :     517132.936889
 Mol. C8AA /au·bohr⁸  :   11348189.816193
 Mol. α(0) /au        :       1082.208003


Wiberg/Mayer (AO) data.
largest (>0.10) Wiberg bond orders for each atom

 ---------------------------------------------------------------------------
     #   Z sym  total        # sym  WBO       # sym  WBO       # sym  WBO
 ---------------------------------------------------------------------------
     1   7 N    2.993 --     2 C    1.000   121 H    0.965   122 H    0.957
     2   6 C    3.982 --     1 N    1.000   123 H    0.960     5 C    0.957
                             3 C    0.955
     3   6 C    3.758 --     4 O    1.705     2 C    0.955   124 H    0.877
     4   8 O    1.938 --     3 C    1.705
     5   6 C    3.946 --     7 C    1.003     6 O    0.977   125 H    0.964
                             2 C    0.957
     6   8 O    1.949 --     5 C    0.977   126 H    0.862
     7   6 C    3.993 --     5 C    1.003   129 H    0.985   127 H    0.983
                           128 H    0.982
     8   7 N    2.988 --     9 C    1.010   130 H    0.962   131 H    0.960
     9   6 C    3.988 --     8 N    1.010    12 C    0.970   132 H    0.962
                            10 C    0.940
    10   6 C    3.949 --    11 O    1.600    14 N    1.341     9 C    0.940
    11   8 O    1.931 --    10 C    1.600    14 N    0.206
    12   6 C    3.965 --    13 O    1.007   134 H    0.971     9 C    0.970
                           133 H    0.968
    13   8 O    1.950 --    12 C    1.007   135 H    0.875
    14   7 N    3.499 --    10 C    1.341    15 C    0.974   136 H    0.892
                            11 O    0.206
    15   6 C    3.963 --    14 N    0.974    16 C    0.971    18 C    0.962
                           137 H    0.955
    16   6 C    3.751 --    17 O    1.709    15 C    0.971   138 H    0.954
    17   8 O    1.831 --    16 C    1.709
    18   6 C    3.938 --    19 O    0.994   139 H    0.971    15 C    0.962
                           140 H    0.949
    19   8 O    1.932 --    18 C    0.994   141 H    0.883
    20   7 N    2.985 --    21 C    1.006   142 H    0.967   143 H    0.949
    21   6 C    3.986 --    20 N    1.006    22 C    0.981    24 C    0.964
                           144 H    0.959
    22   6 C    3.701 --    23 O    1.715    21 C    0.981   145 H    0.955
    23   8 O    1.838 --    22 C    1.715
    24   6 C    3.983 --    25 C    1.005   146 H    0.977   147 H    0.974
                            21 C    0.964
    25   6 C    3.992 --    24 C    1.005   148 H    0.969   149 H    0.968
                            26 C    0.935
    26   6 C    3.940 --    28 O    1.517    27 O    1.464    25 C    0.935
    27   8 O    1.756 --    26 C    1.464    28 O    0.221
    28   8 O    1.809 --    26 C    1.517    27 O    0.221
    29   7 N    2.989 --    30 C    1.011   150 H    0.966   151 H    0.957
    30   6 C    3.982 --    29 N    1.011    33 C    0.963   152 H    0.952
                            31 C    0.942
    31   6 C    3.904 --    32 O    1.585    40 N    1.301    30 C    0.942
    32   8 O    1.932 --    31 C    1.585    40 N    0.186
    33   6 C    3.989 --    34 C    1.006   154 H    0.974    30 C    0.963
                           153 H    0.955
    34   6 C    3.926 --    35 C    1.407    36 C    1.378    33 C    1.006
    35   6 C    3.960 --    37 C    1.429    34 C    1.407   155 H    0.973
    36   6 C    3.925 --    38 C    1.430    34 C    1.378   156 H    0.973
    37   6 C    3.925 --    35 C    1.429    39 C    1.403   157 H    0.975
    38   6 C    3.963 --    39 C    1.432    36 C    1.430   158 H    0.975
    39   6 C    3.931 --    38 C    1.432    37 C    1.403   159 H    0.975
    40   7 N    3.452 --    31 C    1.301    41 C    0.969   160 H    0.920
                            32 O    0.186
    41   6 C    3.962 --    44 C    0.995    40 N    0.969   161 H    0.955
                            42 C    0.932
    42   6 C    3.923 --    43 O    1.630    45 N    1.286    41 C    0.932
    43   8 O    1.946 --    42 C    1.630    45 N    0.188
    44   6 C    3.986 --    41 C    0.995   162 H    0.985   164 H    0.982
                           163 H    0.981
    45   7 N    3.440 --    42 C    1.286    46 C    0.964   165 H    0.927
                            43 O    0.188
    46   6 C    3.958 --    49 C    0.976    45 N    0.964   166 H    0.957
                            47 C    0.938
    47   6 C    3.895 --    48 O    1.588    54 N    1.288    46 C    0.938
    48   8 O    1.909 --    47 C    1.588    54 N    0.183
    49   6 C    3.986 --    50 C    1.006   167 H    0.976    46 C    0.976
                           168 H    0.970
    50   6 C    3.987 --    49 C    1.006   170 H    0.973   169 H    0.968
                            51 C    0.928
    51   6 C    3.941 --    52 O    1.498    53 O    1.493    50 C    0.928
    52   8 O    1.788 --    51 C    1.498    53 O    0.221
    53   8 O    1.787 --    51 C    1.493    52 O    0.221
    54   7 N    3.443 --    47 C    1.288    55 C    0.968   171 H    0.930
                            48 O    0.183
    55   6 C    3.958 --    58 C    0.969    54 N    0.968   172 H    0.956
                            56 C    0.937
    56   6 C    3.946 --    57 O    1.580    62 N    1.345    55 C    0.937
    57   8 O    1.922 --    56 C    1.580    62 N    0.201
    58   6 C    3.988 --    60 C    1.005    59 C    0.994    55 C    0.969
                           173 H    0.962
    59   6 C    3.996 --    61 C    1.021    58 C    0.994   175 H    0.977
                           174 H    0.976
    60   6 C    3.994 --    58 C    1.005   176 H    0.984   178 H    0.981
                           177 H    0.980
    61   6 C    3.995 --    59 C    1.021   179 H    0.985   180 H    0.985
                           181 H    0.983
    62   7 N    3.498 --    56 C    1.345    63 C    0.967   182 H    0.890
                            57 O    0.201
    63   6 C    3.960 --    62 N    0.967    66 C    0.965   183 H    0.951
                            64 C    0.941
    64   6 C    3.942 --    65 O    1.588    72 N    1.325    63 C    0.941
    65   8 O    1.943 --    64 C    1.588    72 N    0.189
    66   6 C    3.984 --    67 C    0.995   184 H    0.974   185 H    0.965
                            63 C    0.965
    67   6 C    3.937 --    69 C    1.569    68 N    1.239    66 C    0.995
    68   7 N    2.936 --    70 C    1.500    67 C    1.239
    69   6 C    3.927 --    67 C    1.569    71 N    1.182   186 H    0.970
                            70 C    0.103
    70   6 C    3.147 --    68 N    1.500    71 N    1.272    69 C    0.103
    71   7 N    3.531 --    70 C    1.272    69 C    1.182   231 H    0.899
    72   7 N    3.478 --    64 C    1.325    73 C    0.968   187 H    0.913
                            65 O    0.189
    73   6 C    3.960 --    76 C    0.978    72 N    0.968   188 H    0.957
                            74 C    0.940
    74   6 C    3.952 --    75 O    1.609    81 N    1.324    73 C    0.940
    75   8 O    1.939 --    74 C    1.609    81 N    0.198
    76   6 C    3.988 --    77 C    0.993    73 C    0.978   190 H    0.973
                           189 H    0.972
    77   6 C    3.995 --    76 C    0.993   191 H    0.975    78 C    0.968
                           192 H    0.961
    78   6 C    3.945 --    79 O    1.638    80 N    1.317    77 C    0.968
    79   8 O    1.933 --    78 C    1.638    80 N    0.200
    80   7 N    3.409 --    78 C    1.317   194 H    0.929   193 H    0.925
                            79 O    0.200
    81   7 N    3.478 --    74 C    1.324    82 C    0.970   195 H    0.903
                            75 O    0.198
    82   6 C    3.962 --    85 C    0.994    81 N    0.970   196 H    0.957
                            83 C    0.935
    83   6 C    3.949 --    84 O    1.609    86 N    1.330    82 C    0.935
    84   8 O    1.921 --    83 C    1.609    86 N    0.198
    85   6 C    3.986 --    82 C    0.994   199 H    0.983   197 H    0.982
                           198 H    0.982
    86   7 N    3.491 --    83 C    1.330    87 C    0.976   200 H    0.907
                            84 O    0.198
    87   6 C    3.963 --    86 N    0.976    90 C    0.966   201 H    0.952
                            88 C    0.928
    88   6 C    3.950 --    89 O    1.607    97 N    1.337    87 C    0.928
    89   8 O    1.931 --    88 C    1.607    97 N    0.205
    90   6 C    3.990 --    91 C    1.012   203 H    0.970    87 C    0.966
                           202 H    0.928
    91   6 C    3.982 --    93 C    1.414    92 C    1.404    90 C    1.012
                            96 C    0.108
    92   6 C    3.986 --    94 C    1.446    91 C    1.404   204 H    0.972
                            95 C    0.111
    93   6 C    3.991 --    95 C    1.447    91 C    1.414   205 H    0.968
                            94 C    0.108
    94   6 C    3.993 --    92 C    1.446    96 C    1.441   206 H    0.973
                            93 C    0.108
    95   6 C    3.987 --    93 C    1.447    96 C    1.430   207 H    0.971
                            92 C    0.111
    96   6 C    3.986 --    94 C    1.441    95 C    1.430   208 H    0.974
                            91 C    0.108
    97   7 N    3.492 --    88 C    1.337    98 C    0.973   209 H    0.885
                            89 O    0.205
    98   6 C    3.963 --   101 C    0.974    97 N    0.973   210 H    0.952
                            99 C    0.944
    99   6 C    3.950 --   100 O    1.610   106 N    1.319    98 C    0.944
   100   8 O    1.917 --    99 C    1.610   106 N    0.195
   101   6 C    3.991 --   102 C    1.005   211 H    0.979    98 C    0.974
                           212 H    0.969
   102   6 C    3.991 --   101 C    1.005   213 H    0.972   214 H    0.968
                           103 C    0.934
   103   6 C    3.938 --   105 O    1.503   104 O    1.467   102 C    0.934
   104   8 O    1.812 --   103 C    1.467   105 O    0.212
   105   8 O    1.790 --   103 C    1.503   104 O    0.212
   106   7 N    3.472 --    99 C    1.319   107 C    0.967   215 H    0.910
                           100 O    0.195
   107   6 C    3.959 --   106 N    0.967   110 C    0.962   216 H    0.958
                           108 C    0.958
   108   6 C    3.637 --   109 O    1.669   107 C    0.958   217 H    0.958
   109   8 O    1.782 --   108 C    1.669
   110   6 C    3.941 --   112 C    1.001   111 O    0.979   218 H    0.964
                           107 C    0.962
   111   8 O    1.943 --   110 C    0.979   219 H    0.883
   112   6 C    3.992 --   110 C    1.001   220 H    0.985   222 H    0.985
                           221 H    0.981
   113   1 H    0.998 --   223 H    0.888
   114   1 H    0.999 --   224 H    0.968
   115   1 H    0.999 --   225 H    0.971
   116   1 H    1.000 --   226 H    0.968
   117   1 H    1.000 --   227 H    0.948
   118   1 H    0.999 --   228 H    0.964
   119   1 H    1.000 --   229 H    0.927
   120   1 H    0.998 --   230 H    0.927
   121   1 H    0.978 --     1 N    0.965
   122   1 H    0.976 --     1 N    0.957
   123   1 H    0.999 --     2 C    0.960
   124   1 H    0.994 --     3 C    0.877
   125   1 H    0.997 --     5 C    0.964
   126   1 H    0.915 --     6 O    0.862
   127   1 H    0.998 --     7 C    0.983
   128   1 H    0.998 --     7 C    0.982
   129   1 H    0.997 --     7 C    0.985
   130   1 H    0.975 --     8 N    0.962
   131   1 H    0.974 --     8 N    0.960
   132   1 H    0.999 --     9 C    0.962
   133   1 H    0.999 --    12 C    0.968
   134   1 H    0.998 --    12 C    0.971
   135   1 H    0.901 --    13 O    0.875
   136   1 H    0.945 --    14 N    0.892
   137   1 H    0.995 --    15 C    0.955
   138   1 H    1.000 --    16 C    0.954
   139   1 H    0.998 --    18 C    0.971
   140   1 H    0.993 --    18 C    0.949
   141   1 H    0.900 --    19 O    0.883
   142   1 H    0.979 --    20 N    0.967
   143   1 H    0.977 --    20 N    0.949
   144   1 H    0.999 --    21 C    0.959
   145   1 H    0.999 --    22 C    0.955
   146   1 H    0.998 --    24 C    0.977
   147   1 H    0.998 --    24 C    0.974
   148   1 H    1.000 --    25 C    0.969
   149   1 H    1.000 --    25 C    0.968
   150   1 H    0.980 --    29 N    0.966
   151   1 H    0.972 --    29 N    0.957
   152   1 H    0.999 --    30 C    0.952
   153   1 H    0.996 --    33 C    0.955
   154   1 H    0.997 --    33 C    0.974
   155   1 H    0.999 --    35 C    0.973
   156   1 H    1.000 --    36 C    0.973
   157   1 H    0.999 --    37 C    0.975
   158   1 H    0.999 --    38 C    0.975
   159   1 H    0.999 --    39 C    0.975
   160   1 H    0.951 --    40 N    0.920
   161   1 H    0.995 --    41 C    0.955
   162   1 H    0.997 --    44 C    0.985
   163   1 H    0.995 --    44 C    0.981
   164   1 H    0.995 --    44 C    0.982
   165   1 H    0.959 --    45 N    0.927
   166   1 H    0.994 --    46 C    0.957
   167   1 H    0.997 --    49 C    0.976
   168   1 H    0.997 --    49 C    0.970
   169   1 H    0.999 --    50 C    0.968
   170   1 H    0.999 --    50 C    0.973
   171   1 H    0.963 --    54 N    0.930
   172   1 H    0.993 --    55 C    0.956
   173   1 H    0.999 --    58 C    0.962
   174   1 H    0.999 --    59 C    0.976
   175   1 H    0.997 --    59 C    0.977
   176   1 H    0.997 --    60 C    0.984
   177   1 H    0.999 --    60 C    0.980
   178   1 H    0.997 --    60 C    0.981
   179   1 H    0.999 --    61 C    0.985
   180   1 H    0.997 --    61 C    0.985
   181   1 H    0.998 --    61 C    0.983
   182   1 H    0.951 --    62 N    0.890
   183   1 H    0.994 --    63 C    0.951
   184   1 H    0.998 --    66 C    0.974
   185   1 H    0.998 --    66 C    0.965
   186   1 H    0.997 --    69 C    0.970
   187   1 H    0.955 --    72 N    0.913
   188   1 H    0.996 --    73 C    0.957
   189   1 H    0.996 --    76 C    0.972
   190   1 H    0.995 --    76 C    0.973
   191   1 H    0.997 --    77 C    0.975
   192   1 H    0.993 --    77 C    0.961
   193   1 H    0.950 --    80 N    0.925
   194   1 H    0.949 --    80 N    0.929
   195   1 H    0.950 --    81 N    0.903
   196   1 H    0.994 --    82 C    0.957
   197   1 H    0.996 --    85 C    0.982
   198   1 H    0.995 --    85 C    0.982
   199   1 H    0.995 --    85 C    0.983
   200   1 H    0.953 --    86 N    0.907
   201   1 H    0.993 --    87 C    0.952
   202   1 H    0.995 --    90 C    0.928
   203   1 H    0.996 --    90 C    0.970
   204   1 H    0.998 --    92 C    0.972
   205   1 H    0.999 --    93 C    0.968
   206   1 H    0.998 --    94 C    0.973
   207   1 H    0.998 --    95 C    0.971
   208   1 H    0.998 --    96 C    0.974
   209   1 H    0.949 --    97 N    0.885
   210   1 H    0.994 --    98 C    0.952
   211   1 H    0.998 --   101 C    0.979
   212   1 H    0.998 --   101 C    0.969
   213   1 H    0.999 --   102 C    0.972
   214   1 H    0.999 --   102 C    0.968
   215   1 H    0.956 --   106 N    0.910
   216   1 H    0.996 --   107 C    0.958
   217   1 H    1.000 --   108 C    0.958
   218   1 H    0.997 --   110 C    0.964
   219   1 H    0.901 --   111 O    0.883
   220   1 H    0.997 --   112 C    0.985
   221   1 H    0.997 --   112 C    0.981
   222   1 H    0.996 --   112 C    0.985
   223   1 H    0.993 --   113 H    0.888
   224   1 H    0.999 --   114 H    0.968
   225   1 H    1.000 --   115 H    0.971
   226   1 H    1.000 --   116 H    0.968
   227   1 H    1.000 --   117 H    0.948
   228   1 H    0.999 --   118 H    0.964
   229   1 H    1.000 --   119 H    0.927
   230   1 H    0.999 --   120 H    0.927
   231   1 H    0.975 --    71 N    0.899
 ---------------------------------------------------------------------------

Topologies differ in total number of bonds
Writing topology from bond orders to xtbtopo.mol

molecular dipole:
                 x           y           z       tot (Debye)
 q only:     -701.282      18.125    -357.833
   full:     -700.234      19.942    -359.245    2001.022
molecular quadrupole (traceless):
                xx          xy          yy          xz          yz          zz
 q only:   -85625.820    3713.161   61886.710  -75196.894    2234.168   23739.109
  q+dip:   -85219.018    4100.059   61843.638  -75366.612    2467.837   23375.380
   full:   -85217.614    4095.828   61842.968  -75366.527    2469.571   23374.646


           -------------------------------------------------
          | TOTAL ENERGY             -362.555624374516 Eh   |
          | GRADIENT NORM               0.870986413641 Eh/α |
          | HOMO-LUMO GAP               0.009313181759 eV   |
           -------------------------------------------------
########################################################################
[WARNING] Runtime exception occurred
-2- restart_readRestart: Dimension missmatch in restart file.
-1- restart_readRestart: Number of electron missmatch in restart file.
########################################################################

------------------------------------------------------------------------
 * finished run on 2025/05/05 at 17:13:13.333     
------------------------------------------------------------------------
 total:
 * wall-time:     0 d,  0 h,  0 min,  1.660 sec
 *  cpu-time:     0 d,  0 h,  0 min, 48.919 sec
 * ratio c/w:    29.472 speedup
 SCF:
 * wall-time:     0 d,  0 h,  0 min,  1.638 sec
 *  cpu-time:     0 d,  0 h,  0 min, 48.349 sec
 * ratio c/w:    29.517 speedup

