      -----------------------------------------------------------      
     |                   =====================                   |     
     |                           x T B                           |     
     |                   =====================                   |     
     |                         S. Grimme                         |     
     |          Mulliken Center for Theoretical Chemistry        |     
     |                    University of Bonn                     |     
      -----------------------------------------------------------      

   * xtb version 6.7.1 (edcfbbe) compiled by 'conda@afd1a870197c' on 2025-04-11

   xtb is free software: you can redistribute it and/or modify it under
   the terms of the GNU Lesser General Public License as published by
   the Free Software Foundation, either version 3 of the License, or
   (at your option) any later version.
   
   xtb is distributed in the hope that it will be useful,
   but WITHOUT ANY WARRANTY; without even the implied warranty of
   MERCHANTABILITY or FITNESS FOR A PARTICULAR PURPOSE.  See the
   GNU Lesser General Public License for more details.
   
   Cite this work as:
   * C. Bannwarth, E. Caldeweyher, S. Ehlert, A. Hansen, P. Pracht,
     J. Seibert, S. Spicher, S. Grimme, WIREs Comput. Mol. Sci., 2020, 11,
     e01493. DOI: 10.1002/wcms.1493
   
   for GFN2-xTB:
   * C. Bannwarth, S. Ehlert and S. Grimme., J. Chem. Theory Comput., 2019,
     15, 1652-1671. DOI: 10.1021/acs.jctc.8b01176
   for GFN1-xTB:
   * S. Grimme, C. Bannwarth, P. Shushkov, J. Chem. Theory Comput., 2017,
     13, 1989-2009. DOI: 10.1021/acs.jctc.7b00118
   for GFN0-xTB:
   * P. Pracht, E. Caldeweyher, S. Ehlert, S. Grimme, ChemRxiv, 2019, preprint.
     DOI: 10.26434/chemrxiv.8326202.v1
   for GFN-FF:
   * S. Spicher and S. Grimme, Angew. Chem. Int. Ed., 2020, 59, 15665-15673.
     DOI: 10.1002/anie.202004239
   
   for ALPB and GBSA implicit solvation:
   * S. Ehlert, M. Stahn, S. Spicher, S. Grimme, J. Chem. Theory Comput.,
     2021, 17, 4250-4261. DOI: 10.1021/acs.jctc.1c00471
   
   for ddCOSMO and CPCM-X implicit solvation:
   * M. Stahn, S. Ehlert, S. Grimme, J. Phys. Chem. A,
     2023, XX, XXXX-XXXX. DOI: 10.1021/acs.jpca.3c04382
   
   for DFT-D4:
   * E. Caldeweyher, C. Bannwarth and S. Grimme, J. Chem. Phys., 2017,
     147, 034112. DOI: 10.1063/1.4993215
   * E. Caldeweyher, S. Ehlert, A. Hansen, H. Neugebauer, S. Spicher,
     C. Bannwarth and S. Grimme, J. Chem. Phys., 2019, 150, 154122.
     DOI: 10.1063/1.5090222
   * E. Caldeweyher, J.-M. Mewes, S. Ehlert and S. Grimme, Phys. Chem. Chem. Phys.
     2020, 22, 8499-8512. DOI: 10.1039/D0CP00502A
   
   for sTDA-xTB:
   * S. Grimme and C. Bannwarth, J. Chem. Phys., 2016, 145, 054103.
     DOI: 10.1063/1.4959605
   
   in the mass-spec context:
   * V. Asgeirsson, C. Bauer and S. Grimme, Chem. Sci., 2017, 8, 4879.
     DOI: 10.1039/c7sc00601b
   * J. Koopman and S. Grimme, ACS Omega 2019, 4, 12, 15120-15133.
     DOI: 10.1021/acsomega.9b02011
   
   for metadynamics refer to:
   * S. Grimme, J. Chem. Theory Comput., 2019, 155, 2847-2862
     DOI: 10.1021/acs.jctc.9b00143
   
   for SPH calculations refer to:
   * S. Spicher and S. Grimme, J. Chem. Theory Comput., 2021, 17, 1701-1714
     DOI: 10.1021/acs.jctc.0c01306
   
   for ONIOM refer to:
   * C. Plett, A. Katbashev, S. Ehlert, S. Grimme, M. Bursch,
     Phys. Chem. Chem. Phys., 2023, 25, 17860-17868. DOI: 10.1039/D3CP02178E
   
   for DIPRO refer to:
   * J. Kohn, N. Gildemeister, S. Grimme, D. Fazzi, A. Hansen,
     J. Chem. Phys., 2023, just accepted.
   
   for PTB refer to:
   * S. Grimme, M. Mueller, A. Hansen, J. Chem. Phys., 2023, 158, 124111.
     DOI: 10.1063/5.0137838
   
   with help from (in alphabetical order)
   P. Atkinson, C. Bannwarth, F. Bohle, G. Brandenburg, E. Caldeweyher
   M. Checinski, S. Dohm, S. Ehlert, S. Ehrlich, I. Gerasimov, C. Hölzer
   A. Katbashev, J. Kohn, J. Koopman, C. Lavigne, S. Lehtola, F. März, M. Müller,
   F. Musil, H. Neugebauer, J. Pisarek, C. Plett, P. Pracht, F. Pultar,
   J. Seibert, P. Shushkov, S. Spicher, M. Stahn, M. Steiner, T. Strunk,
   J. Stückrath, T. Rose, and J. Unsleber
   
 * started run on 2025/05/05 at 16:50:38.967     
   ID    Z sym.   atoms
    1    7 N      1, 8, 9, 17, 25, 33, 39, 42, 43, 49, 52, 53, 61, 68, 70, 71
    2    6 C      2, 3, 5, 6, 10, 11, 13, 14, 16, 18, 19, 21-24, 26, 27, 29,
                  30, 32, 34, 35, 37, 38, 40, 41, 44, 45, 47, 48, 50, 51, 54,
                  55, 57, 58, 62, 63, 65-67, 69
    3    8 O      4, 7, 12, 20, 28, 36, 46, 56, 59, 60, 64
    4   16 S      15, 31
    5    1 H      72-136

           -------------------------------------------------
          |                Calculation Setup                |
           -------------------------------------------------

          program call               : xtb /tmp/tmpik6dgooc/HID/input.xyz --alpb ether --chrg 0 --input /tmp/tmpik6dgooc/HID/constraints.inp --gfn 2
          hostname                   : fedora
          coordinate file            : /tmp/tmpik6dgooc/HID/input.xyz
          omp threads                :                    32


           -------------------------------------------------
          |                 G F N 2 - x T B                 |
           -------------------------------------------------

        Reference                      10.1021/acs.jctc.8b01176
      * Hamiltonian:
        H0-scaling (s, p, d)           1.850000    2.230000    2.230000
        zeta-weighting                 0.500000
      * Dispersion:
        s8                             2.700000
        a1                             0.520000
        a2                             5.000000
        s9                             5.000000
      * Repulsion:
        kExp                           1.500000    1.000000
        rExp                           1.000000
      * Coulomb:
        alpha                          2.000000
        third order                    shell-resolved
        anisotropic                    true
        a3                             3.000000
        a5                             4.000000
        cn-shift                       1.200000
        cn-exp                         4.000000
        max-rad                        5.000000

      * Solvation model:               ALPB
        Solvent                        ether
        Parameter file                 internal GFN2-xTB/ALPB
        Dielectric constant                4.3300E+00
        Reference state                gsolv [1 M gas/solution]
        Free energy shift                  4.9534E-03 Eh       3.1083E+00 kcal/mol
        Temperature                        2.9815E+02 K
        Density                            7.1300E-01 kg/L
        Solvent mass                       7.4120E+01 g/mol
        Interaction kernel             P16
        Born radius scaling (c1)           1.5847E+00
        Born radii integrator          GBOBC
        Born offset                        0.0000E+00 a0       0.0000E+00 AA
        H-bond correction              true
        Ion screening                  false
        Surface tension                    1.0000E-05 Eh       1.5569E+01 dyn/cm
        Grid points                               230 per atom

          ...................................................
          :                      SETUP                      :
          :.................................................:
          :  # basis functions                 361          :
          :  # atomic orbitals                 359          :
          :  # shells                          209          :
          :  # electrons                       391          :
          :  max. iterations                   250          :
          :  Hamiltonian                  GFN2-xTB          :
          :  restarted?                      false          :
          :  GBSA solvation                   true          :
          :  PC potential                    false          :
          :  electronic temp.          300.0000000     K    :
          :  accuracy                    1.0000000          :
          :  -> integral cutoff          0.2500000E+02      :
          :  -> integral neglect         0.1000000E-07      :
          :  -> SCF convergence          0.1000000E-05 Eh   :
          :  -> wf. convergence          0.1000000E-03 e    :
          :  Broyden damping             0.4000000          :
          :  net charge                          0          :
          :  unpaired electrons                  0          :
          ...................................................

 iter      E             dE          RMSdq      gap      omega  full diag
   1   -221.4147507 -0.221415E+03  0.489E+00    0.04       0.0  T
   2   -219.8462079  0.156854E+01  0.453E+00    0.07       1.0  T
   3   -222.4615907 -0.261538E+01  0.291E+00    0.88       1.0  T
   4   -223.5450791 -0.108349E+01  0.197E+00    0.61       1.0  T
   5   -223.4722329  0.728462E-01  0.172E+00    0.12       1.0  T
   6   -223.3276347  0.144598E+00  0.146E+00    0.05       1.0  T
   7   -223.3884525 -0.608178E-01  0.137E+00    0.72       1.0  T
   8   -223.3207049  0.677476E-01  0.137E+00    0.82       1.0  T
   9   -223.6363677 -0.315663E+00  0.779E-01    0.04       1.0  T
  10   -223.6731822 -0.368145E-01  0.849E-01    0.30       1.0  T
  11   -223.6871180 -0.139358E-01  0.719E-01    0.28       1.0  T
  12   -223.7013728 -0.142548E-01  0.631E-01    0.15       1.0  T
  13   -223.2320519  0.469321E+00  0.141E+00    0.03       1.0  T
  14   -223.7162821 -0.484230E+00  0.465E-01    0.13       1.0  T
  15   -223.7383273 -0.220452E-01  0.171E-01    0.07       1.0  T
  16   -223.7310900  0.723723E-02  0.232E-01    0.09       1.0  T
  17   -223.7221859  0.890410E-02  0.289E-01    0.02       1.0  T
  18   -223.6251546  0.970314E-01  0.709E-01    0.04       1.0  T
  19   -223.7190546 -0.939000E-01  0.316E-01    0.08       1.0  T
  20   -223.7295216 -0.104670E-01  0.229E-01    0.05       1.0  T
  21   -223.7410458 -0.115242E-01  0.845E-02    0.05       1.0  T
  22   -223.7419968 -0.950997E-03  0.496E-02    0.05       1.0  T
  23   -223.7422799 -0.283117E-03  0.344E-02    0.05       1.0  T
  24   -223.7424558 -0.175852E-03  0.200E-02    0.05       1.0  T
  25   -223.7425622 -0.106447E-03  0.509E-03    0.05       1.7  T
  26   -223.7425661 -0.387788E-05  0.210E-03    0.05       4.1  T
  27   -223.7425666 -0.528801E-06  0.188E-03    0.05       4.6  T
  28   -223.7425666  0.699820E-07  0.178E-03    0.05       4.8  T
  29   -223.7425672 -0.670713E-06  0.734E-04    0.05      11.7  T
  30   -223.7425674 -0.134846E-06  0.135E-04    0.05      63.5  T

   *** convergence criteria satisfied after 30 iterations ***

         #    Occupation            Energy/Eh            Energy/eV
      -------------------------------------------------------------
         1        2.0000           -0.7586234             -20.6432
       ...           ...                  ...                  ...
       190        2.0000           -0.3638682              -9.9014
       191        2.0000           -0.3631940              -9.8830
       192        1.9945           -0.3576585              -9.7324
       193        1.9483           -0.3554893              -9.6734
       194        1.8536           -0.3544272              -9.6445
       195        1.7590           -0.3538755              -9.6294
       196        1.0577           -0.3518223              -9.5736 (HOMO)
       197        0.3869           -0.3500774              -9.5261 (LUMO)
       198                         -0.2815066              -7.6602
       199                         -0.2527506              -6.8777
       200                         -0.2426577              -6.6031
       201                         -0.2353578              -6.4044
       ...                                ...                  ...
       359                          0.6702616              18.2387
      -------------------------------------------------------------
                  HL-Gap            0.0017450 Eh            0.0475 eV
             Fermi-level           -0.3516865 Eh           -9.5699 eV

 SCC (total)                   0 d,  0 h,  0 min,  0.810 sec
 SCC setup                      ...        0 min,  0.001 sec (  0.168%)
 Dispersion                     ...        0 min,  0.003 sec (  0.357%)
 classical contributions        ...        0 min,  0.000 sec (  0.019%)
 integral evaluation            ...        0 min,  0.006 sec (  0.784%)
 iterations                     ...        0 min,  0.779 sec ( 96.264%)
 molecular gradient             ...        0 min,  0.016 sec (  2.035%)
 printout                       ...        0 min,  0.003 sec (  0.370%)

         :::::::::::::::::::::::::::::::::::::::::::::::::::::
         ::                     SUMMARY                     ::
         :::::::::::::::::::::::::::::::::::::::::::::::::::::
         :: total energy            -220.996244388829 Eh    ::
         :: total w/o Gsasa/hb      -220.927774111760 Eh    ::
         :: gradient norm              0.271176546500 Eh/a0 ::
         :: HOMO-LUMO gap              0.047482612466 eV    ::
         ::.................................................::
         :: SCC energy              -223.731462334456 Eh    ::
         :: -> isotropic ES            0.712517059934 Eh    ::
         :: -> anisotropic ES         -0.010327621530 Eh    ::
         :: -> anisotropic XC          0.079170625845 Eh    ::
         :: -> dispersion             -0.171703324906 Eh    ::
         :: -> Gsolv                  -0.224639464403 Eh    ::
         ::    -> Gelec               -0.156169187334 Eh    ::
         ::    -> Gsasa               -0.057513165317 Eh    ::
         ::    -> Ghb                 -0.015910549330 Eh    ::
         ::    -> Gshift               0.004953437577 Eh    ::
         :: repulsion energy           2.735217945627 Eh    ::
         :: add. restraining           0.000000000000 Eh    ::
         :: total charge              -0.000000000001 e     ::
         :::::::::::::::::::::::::::::::::::::::::::::::::::::

           -------------------------------------------------
          |                Property Printout                |
           -------------------------------------------------

    * Orbital Energies and Occupations

         #    Occupation            Energy/Eh            Energy/eV
      -------------------------------------------------------------
         1        2.0000           -0.7586234             -20.6432
       ...           ...                  ...                  ...
       184        2.0000           -0.3854484             -10.4886
       185        2.0000           -0.3837924             -10.4435
       186        2.0000           -0.3815281             -10.3819
       187        2.0000           -0.3790996             -10.3158
       188        2.0000           -0.3743643             -10.1870
       189        2.0000           -0.3716528             -10.1132
       190        2.0000           -0.3638682              -9.9014
       191        2.0000           -0.3631940              -9.8830
       192        1.9945           -0.3576585              -9.7324
       193        1.9483           -0.3554893              -9.6734
       194        1.8536           -0.3544272              -9.6445
       195        1.7590           -0.3538755              -9.6294
       196        1.0577           -0.3518223              -9.5736 (HOMO)
       197        0.3869           -0.3500774              -9.5261 (LUMO)
       198                         -0.2815066              -7.6602
       199                         -0.2527506              -6.8777
       200                         -0.2426577              -6.6031
       201                         -0.2353578              -6.4044
       202                         -0.2225035              -6.0546
       203                         -0.2221851              -6.0460
       204                         -0.2148884              -5.8474
       205                         -0.2113941              -5.7523
       206                         -0.2089581              -5.6860
       207                         -0.2034318              -5.5357
       ...                                ...                  ...
       359                          0.6702616              18.2387
      -------------------------------------------------------------
                  HL-Gap            0.0017450 Eh            0.0475 eV
             Fermi-level           -0.3516865 Eh           -9.5699 eV

     #   Z          covCN         q      C6AA      α(0)
     1   7 N        2.630    -0.375    29.682     8.091
     2   6 C        3.788     0.038    19.954     6.362
     3   6 C        2.756     0.264    22.540     7.774
     4   8 O        0.859    -0.500    23.791     6.540
     5   6 C        3.811    -0.106    22.510     6.753
     6   6 C        2.742     0.281    22.240     7.722
     7   8 O        0.859    -0.492    23.604     6.514
     8   7 N        2.639    -0.285    27.346     7.767
     9   7 N        2.690    -0.178    24.858     7.405
    10   6 C        3.798     0.025    20.160     6.393
    11   6 C        2.753     0.275    22.357     7.743
    12   8 O        0.858    -0.499    23.765     6.536
    13   6 C        3.841    -0.082    22.037     6.678
    14   6 C        3.800    -0.016    20.864     6.503
    15  16 S        1.977    -0.225   150.663    20.659
    16   6 C        3.751    -0.062    21.757     6.652
    17   7 N        2.688    -0.175    24.796     7.396
    18   6 C        3.796     0.021    20.222     6.403
    19   6 C        2.754     0.275    22.354     7.742
    20   8 O        0.858    -0.482    23.383     6.483
    21   6 C        3.815    -0.083    22.068     6.686
    22   6 C        3.853    -0.015    20.802     6.487
    23   6 C        3.761    -0.113    22.718     6.795
    24   6 C        3.763    -0.123    22.894     6.820
    25   7 N        2.688    -0.176    24.806     7.397
    26   6 C        3.794     0.022    20.214     6.402
    27   6 C        2.753     0.274    22.368     7.745
    28   8 O        0.859    -0.483    23.407     6.487
    29   6 C        3.843    -0.060    21.620     6.614
    30   6 C        3.800    -0.018    20.891     6.508
    31  16 S        1.978    -0.191   149.149    20.555
    32   6 C        3.751    -0.063    21.778     6.655
    33   7 N        2.685    -0.175    24.786     7.394
    34   6 C        3.795     0.019    20.258     6.409
    35   6 C        2.756     0.272    22.411     7.752
    36   8 O        0.860    -0.484    23.433     6.490
    37   6 C        3.810    -0.062    21.690     6.629
    38   6 C        3.086     0.056    26.647     8.462
    39   7 N        1.990    -0.266    27.723     7.809
    40   6 C        3.057     0.001    27.939     8.668
    41   6 C        2.106     0.128    27.741     8.510
    42   7 N        1.980    -0.273    27.902     7.834
    43   7 N        2.683    -0.176    24.803     7.397
    44   6 C        3.795     0.014    20.346     6.423
    45   6 C        2.751     0.267    22.492     7.766
    46   8 O        0.858    -0.492    23.613     6.515
    47   6 C        3.807    -0.075    21.925     6.666
    48   6 C        3.086     0.022    27.418     8.583
    49   7 N        2.847    -0.079    22.775     7.088
    50   6 C        3.058     0.011    27.720     8.634
    51   6 C        2.107     0.008    30.654     8.946
    52   7 N        1.979    -0.263    27.638     7.797
    53   7 N        2.688    -0.157    24.386     7.334
    54   6 C        3.799     0.032    20.035     6.373
    55   6 C        2.754     0.275    22.344     7.740
    56   8 O        0.859    -0.495    23.673     6.523
    57   6 C        3.809    -0.079    21.993     6.676
    58   6 C        2.687     0.377    20.621     7.432
    59   8 O        0.856    -0.580    25.641     6.789
    60   8 O        0.857    -0.549    24.909     6.691
    61   7 N        2.689    -0.168    24.645     7.373
    62   6 C        3.791     0.027    20.130     6.390
    63   6 C        2.764     0.209    23.573     7.951
    64   8 O        0.856    -0.355    20.796     6.114
    65   6 C        3.810    -0.084    22.099     6.692
    66   6 C        3.804    -0.089    22.197     6.707
    67   6 C        3.742    -0.032    21.214     6.571
    68   7 N        2.698    -0.140    24.029     7.280
    69   6 C        2.736     0.233    23.113     7.871
    70   7 N        2.652    -0.259    26.734     7.679
    71   7 N        2.654    -0.269    26.954     7.711
    72   1 H        0.860     0.151     1.397     1.851
    73   1 H        0.860     0.175     1.244     1.747
    74   1 H        0.927     0.043     2.412     2.429
    75   1 H        0.927     0.071     2.077     2.253
    76   1 H        0.927     0.091     1.870     2.139
    77   1 H        0.861     0.230     0.965     1.539
    78   1 H        0.861     0.231     0.960     1.535
    79   1 H        0.861     0.229     0.970     1.543
    80   1 H        0.927     0.071     2.074     2.252
    81   1 H        0.927     0.069     2.093     2.263
    82   1 H        0.927     0.076     2.016     2.220
    83   1 H        0.927     0.071     2.072     2.251
    84   1 H        0.927     0.063     2.158     2.297
    85   1 H        0.927     0.069     2.096     2.264
    86   1 H        0.927     0.058     2.218     2.329
    87   1 H        0.927     0.061     2.184     2.311
    88   1 H        0.861     0.212     1.047     1.603
    89   1 H        0.927     0.088     1.900     2.156
    90   1 H        0.927     0.058     2.227     2.334
    91   1 H        0.927     0.071     2.076     2.253
    92   1 H        0.926     0.036     2.502     2.474
    93   1 H        0.927     0.042     2.426     2.436
    94   1 H        0.926     0.041     2.437     2.441
    95   1 H        0.927     0.043     2.408     2.426
    96   1 H        0.927     0.045     2.389     2.417
    97   1 H        0.927     0.050     2.323     2.384
    98   1 H        0.927     0.045     2.389     2.417
    99   1 H        0.861     0.194     1.135     1.669
   100   1 H        0.927     0.094     1.842     2.122
   101   1 H        0.927     0.062     2.173     2.305
   102   1 H        0.927     0.055     2.257     2.349
   103   1 H        0.927     0.069     2.092     2.262
   104   1 H        0.927     0.063     2.168     2.302
   105   1 H        0.927     0.072     2.059     2.244
   106   1 H        0.927     0.057     2.233     2.337
   107   1 H        0.927     0.063     2.159     2.298
   108   1 H        0.861     0.207     1.073     1.623
   109   1 H        0.927     0.104     1.746     2.066
   110   1 H        0.926     0.080     1.978     2.199
   111   1 H        0.927     0.070     2.088     2.260
   112   1 H        0.929     0.064     2.155     2.296
   113   1 H        0.861     0.210     1.057     1.610
   114   1 H        0.926     0.092     1.856     2.130
   115   1 H        0.926     0.082     1.957     2.187
   116   1 H        0.927     0.075     2.033     2.229
   117   1 H        0.929     0.049     2.326     2.385
   118   1 H        0.861     0.209     1.062     1.614
   119   1 H        0.927     0.078     1.995     2.209
   120   1 H        0.926     0.067     2.122     2.278
   121   1 H        0.927     0.065     2.138     2.287
   122   1 H        0.861     0.220     1.009     1.573
   123   1 H        0.927     0.103     1.761     2.075
   124   1 H        0.929     0.075     2.035     2.231
   125   1 H        0.927     0.082     1.955     2.187
   126   1 H        0.927     0.076     2.017     2.221
   127   1 H        0.927     0.080     1.976     2.198
   128   1 H        0.927     0.073     2.051     2.239
   129   1 H        0.927     0.089     1.889     2.149
   130   1 H        0.927     0.095     1.829     2.115
   131   1 H        0.861     0.247     0.893     1.481
   132   1 H        0.861     0.253     0.872     1.463
   133   1 H        0.861     0.251     0.880     1.470
   134   1 H        0.861     0.255     0.863     1.455
   135   1 H        0.860     0.230     0.963     1.537
   136   1 H        0.858     0.175     1.245     1.748

 Mol. C6AA /au·bohr⁶  :     197322.098558
 Mol. C8AA /au·bohr⁸  :    4670908.382764
 Mol. α(0) /au        :        670.903462


Wiberg/Mayer (AO) data.
largest (>0.10) Wiberg bond orders for each atom

 ---------------------------------------------------------------------------
     #   Z sym  total        # sym  WBO       # sym  WBO       # sym  WBO
 ---------------------------------------------------------------------------
     1   7 N    2.983 --     2 C    1.008    72 H    0.963    73 H    0.954
     2   6 C    3.985 --     1 N    1.008     5 C    0.971    74 H    0.962
                             3 C    0.944
     3   6 C    3.946 --     4 O    1.627     9 N    1.305     2 C    0.944
     4   8 O    1.953 --     3 C    1.627     9 N    0.197
     5   6 C    3.993 --    75 H    0.973     2 C    0.971     6 C    0.964
                            76 H    0.951
     6   6 C    3.947 --     7 O    1.649     8 N    1.307     5 C    0.964
     7   8 O    1.959 --     6 C    1.649     8 N    0.199
     8   7 N    3.395 --     6 C    1.307    77 H    0.928    78 H    0.926
                             7 O    0.199
     9   7 N    3.466 --     3 C    1.305    10 C    0.973    79 H    0.916
                             4 O    0.197
    10   6 C    3.965 --    13 C    0.981     9 N    0.973    80 H    0.956
                            11 C    0.936
    11   6 C    3.948 --    12 O    1.617    17 N    1.311    10 C    0.936
    12   8 O    1.958 --    11 C    1.617    17 N    0.195
    13   6 C    3.989 --    14 C    1.008    10 C    0.981    81 H    0.969
                            82 H    0.968
    14   6 C    3.980 --    13 C    1.008    15 S    0.996    84 H    0.971
                            83 H    0.970
    15  16 S    2.101 --    16 C    1.012    14 C    0.996
    16   6 C    3.976 --    15 S    1.012    87 H    0.982    86 H    0.979
                            85 H    0.976
    17   7 N    3.473 --    11 C    1.311    18 C    0.967    88 H    0.918
                            12 O    0.195
    18   6 C    3.957 --    21 C    0.979    17 N    0.967    89 H    0.937
                            19 C    0.937
    19   6 C    3.949 --    20 O    1.653    25 N    1.284    18 C    0.937
    20   8 O    1.965 --    19 C    1.653    25 N    0.194
    21   6 C    3.986 --    22 C    0.986    18 C    0.979    90 H    0.976
                            91 H    0.963
    22   6 C    3.993 --    23 C    1.011    24 C    1.008    21 C    0.986
                            92 H    0.973
    23   6 C    3.995 --    22 C    1.011    95 H    0.984    93 H    0.983
                            94 H    0.975
    24   6 C    3.994 --    22 C    1.008    98 H    0.987    97 H    0.985
                            96 H    0.985
    25   7 N    3.459 --    19 C    1.284    26 C    0.975    99 H    0.928
                            20 O    0.194
    26   6 C    3.960 --    29 C    0.980    25 N    0.975   100 H    0.949
                            27 C    0.932
    27   6 C    3.950 --    28 O    1.643    33 N    1.303    26 C    0.932
    28   8 O    1.963 --    27 C    1.643    33 N    0.199
    29   6 C    3.989 --    30 C    1.007    26 C    0.980   101 H    0.972
                           102 H    0.968
    30   6 C    3.980 --    29 C    1.007    31 S    0.994   104 H    0.972
                           103 H    0.970
    31  16 S    2.082 --    32 C    1.012    30 C    0.994
    32   6 C    3.973 --    31 S    1.012   106 H    0.982   107 H    0.982
                           105 H    0.978
    33   7 N    3.470 --    27 C    1.303    34 C    0.974   108 H    0.913
                            28 O    0.199
    34   6 C    3.955 --    33 N    0.974    37 C    0.955    35 C    0.944
                           109 H    0.943
    35   6 C    3.950 --    36 O    1.639    43 N    1.297    34 C    0.944
    36   8 O    1.956 --    35 C    1.639    43 N    0.196
    37   6 C    3.990 --    38 C    1.015   110 H    0.958   111 H    0.957
                            34 C    0.955
    38   6 C    3.897 --    40 C    1.509    39 N    1.184    37 C    1.015
                            41 C    0.119
    39   7 N    3.007 --    41 C    1.625    38 C    1.184    42 N    0.112
    40   6 C    3.898 --    38 C    1.509    42 N    1.216   112 H    0.960
                            41 C    0.120
    41   6 C    3.459 --    39 N    1.625    42 N    1.553    40 C    0.120
                            38 C    0.119
    42   7 N    2.950 --    41 C    1.553    40 C    1.216    39 N    0.112
    43   7 N    3.462 --    35 C    1.297    44 C    0.967   113 H    0.910
                            36 O    0.196
    44   6 C    3.957 --    43 N    0.967    47 C    0.964    45 C    0.943
                           114 H    0.938
    45   6 C    3.950 --    46 O    1.609    53 N    1.323    44 C    0.943
    46   8 O    1.926 --    45 C    1.609    53 N    0.198
    47   6 C    3.988 --    48 C    1.016    44 C    0.964   116 H    0.964
                           115 H    0.964
    48   6 C    3.908 --    50 C    1.568    49 N    1.147    47 C    1.016
                            51 C    0.116
    49   7 N    3.543 --    51 C    1.305    48 C    1.147   136 H    0.933
    50   6 C    3.912 --    48 C    1.568    52 N    1.224   117 H    0.970
    51   6 C    3.166 --    52 N    1.659    49 N    1.305    48 C    0.116
    52   7 N    3.039 --    51 C    1.659    50 C    1.224
    53   7 N    3.494 --    45 C    1.323    54 C    0.968   118 H    0.928
                            46 O    0.198
    54   6 C    3.959 --    57 C    0.987    53 N    0.968   119 H    0.955
                            55 C    0.932
    55   6 C    3.950 --    56 O    1.641    61 N    1.304    54 C    0.932
    56   8 O    1.948 --    55 C    1.641    61 N    0.198
    57   6 C    3.897 --    54 C    0.987   120 H    0.963   121 H    0.954
                            58 C    0.891
    58   6 C    3.923 --    60 O    1.512    59 O    1.495    57 C    0.891
    59   8 O    1.773 --    58 C    1.495    60 O    0.220
    60   8 O    1.784 --    58 C    1.512    59 O    0.220
    61   7 N    3.466 --    55 C    1.304    62 C    0.976   122 H    0.919
                            56 O    0.198
    62   6 C    3.963 --    61 N    0.976    63 C    0.975    65 C    0.966
                           123 H    0.939
    63   6 C    3.896 --    64 O    1.906    62 C    0.975   124 H    0.950
    64   8 O    2.047 --    63 C    1.906
    65   6 C    3.983 --    66 C    1.003   126 H    0.972   125 H    0.971
                            62 C    0.966
    66   6 C    3.988 --    67 C    1.004    65 C    1.003   128 H    0.975
                           127 H    0.968
    67   6 C    3.953 --    66 C    1.004    68 N    0.976   130 H    0.961
                           129 H    0.959
    68   7 N    3.473 --    69 C    1.325    67 C    0.976   135 H    0.914
                            71 N    0.103    70 N    0.102
    69   6 C    3.977 --    68 N    1.325    70 N    1.314    71 N    1.308
    70   7 N    3.390 --    69 C    1.314   132 H    0.918   131 H    0.912
                            68 N    0.102
    71   7 N    3.381 --    69 C    1.308   133 H    0.919   134 H    0.916
                            68 N    0.103
    72   1 H    0.977 --     1 N    0.963
    73   1 H    0.969 --     1 N    0.954
    74   1 H    0.998 --     2 C    0.962
    75   1 H    0.995 --     5 C    0.973
    76   1 H    0.991 --     5 C    0.951
    77   1 H    0.947 --     8 N    0.928
    78   1 H    0.946 --     8 N    0.926
    79   1 H    0.948 --     9 N    0.916
    80   1 H    0.995 --    10 C    0.956
    81   1 H    0.995 --    13 C    0.969
    82   1 H    0.994 --    13 C    0.968
    83   1 H    0.994 --    14 C    0.970
    84   1 H    0.996 --    14 C    0.971
    85   1 H    0.995 --    16 C    0.976
    86   1 H    0.996 --    16 C    0.979
    87   1 H    0.996 --    16 C    0.982
    88   1 H    0.955 --    17 N    0.918
    89   1 H    0.992 --    18 C    0.937
    90   1 H    0.996 --    21 C    0.976
    91   1 H    0.995 --    21 C    0.963
    92   1 H    0.998 --    22 C    0.973
    93   1 H    0.998 --    23 C    0.983
    94   1 H    0.998 --    23 C    0.975
    95   1 H    0.998 --    23 C    0.984
    96   1 H    0.998 --    24 C    0.985
    97   1 H    0.997 --    24 C    0.985
    98   1 H    0.998 --    24 C    0.987
    99   1 H    0.962 --    25 N    0.928
   100   1 H    0.991 --    26 C    0.949
   101   1 H    0.996 --    29 C    0.972
   102   1 H    0.997 --    29 C    0.968
   103   1 H    0.994 --    30 C    0.970
   104   1 H    0.996 --    30 C    0.972
   105   1 H    0.995 --    32 C    0.978
   106   1 H    0.995 --    32 C    0.982
   107   1 H    0.994 --    32 C    0.982
   108   1 H    0.957 --    33 N    0.913
   109   1 H    0.988 --    34 C    0.943
   110   1 H    0.992 --    37 C    0.958
   111   1 H    0.991 --    37 C    0.957
   112   1 H    0.996 --    40 C    0.960
   113   1 H    0.956 --    43 N    0.910
   114   1 H    0.991 --    44 C    0.938
   115   1 H    0.990 --    47 C    0.964
   116   1 H    0.992 --    47 C    0.964
   117   1 H    0.997 --    50 C    0.970
   118   1 H    0.956 --    53 N    0.928
   119   1 H    0.994 --    54 C    0.955
   120   1 H    0.994 --    57 C    0.963
   121   1 H    0.993 --    57 C    0.954
   122   1 H    0.952 --    61 N    0.919
   123   1 H    0.989 --    62 C    0.939
   124   1 H    0.994 --    63 C    0.950
   125   1 H    0.993 --    65 C    0.971
   126   1 H    0.994 --    65 C    0.972
   127   1 H    0.993 --    66 C    0.968
   128   1 H    0.995 --    66 C    0.975
   129   1 H    0.992 --    67 C    0.959
   130   1 H    0.990 --    67 C    0.961
   131   1 H    0.939 --    70 N    0.912
   132   1 H    0.936 --    70 N    0.918
   133   1 H    0.937 --    71 N    0.919
   134   1 H    0.934 --    71 N    0.916
   135   1 H    0.947 --    68 N    0.914
   136   1 H    0.969 --    49 N    0.933
 ---------------------------------------------------------------------------

Topologies differ in total number of bonds
Writing topology from bond orders to xtbtopo.mol

molecular dipole:
                 x           y           z       tot (Debye)
 q only:        0.468      -9.937      20.949
   full:       -0.260      -8.873      21.096      58.173
molecular quadrupole (traceless):
                xx          xy          yy          xz          yz          zz
 q only:       67.150   -1317.860   -2241.283    2434.437    1842.964    2174.133
  q+dip:     -143.276   -1295.995   -2012.168    2402.977    1910.156    2155.444
   full:     -144.744   -1294.194   -2011.223    2405.140    1910.347    2155.967


           -------------------------------------------------
          | TOTAL ENERGY             -220.996244388829 Eh   |
          | GRADIENT NORM               0.271176546500 Eh/α |
          | HOMO-LUMO GAP               0.047482612466 eV   |
           -------------------------------------------------
########################################################################
[WARNING] Runtime exception occurred
-3- restart_readRestart: Dimension missmatch in restart file.
-2- restart_readRestart: Multiplicity missmatch in restart file.
-1- restart_readRestart: Number of electron missmatch in restart file.
########################################################################

------------------------------------------------------------------------
 * finished run on 2025/05/05 at 16:50:39.789     
------------------------------------------------------------------------
 total:
 * wall-time:     0 d,  0 h,  0 min,  0.822 sec
 *  cpu-time:     0 d,  0 h,  0 min, 24.603 sec
 * ratio c/w:    29.928 speedup
 SCF:
 * wall-time:     0 d,  0 h,  0 min,  0.811 sec
 *  cpu-time:     0 d,  0 h,  0 min, 24.329 sec
 * ratio c/w:    30.012 speedup

