      -----------------------------------------------------------      
     |                   =====================                   |     
     |                           x T B                           |     
     |                   =====================                   |     
     |                         S. Grimme                         |     
     |          Mulliken Center for Theoretical Chemistry        |     
     |                    University of Bonn                     |     
      -----------------------------------------------------------      

   * xtb version 6.7.1 (edcfbbe) compiled by 'conda@afd1a870197c' on 2025-04-11

   xtb is free software: you can redistribute it and/or modify it under
   the terms of the GNU Lesser General Public License as published by
   the Free Software Foundation, either version 3 of the License, or
   (at your option) any later version.
   
   xtb is distributed in the hope that it will be useful,
   but WITHOUT ANY WARRANTY; without even the implied warranty of
   MERCHANTABILITY or FITNESS FOR A PARTICULAR PURPOSE.  See the
   GNU Lesser General Public License for more details.
   
   Cite this work as:
   * C. Bannwarth, E. Caldeweyher, S. Ehlert, A. Hansen, P. Pracht,
     J. Seibert, S. Spicher, S. Grimme, WIREs Comput. Mol. Sci., 2020, 11,
     e01493. DOI: 10.1002/wcms.1493
   
   for GFN2-xTB:
   * C. Bannwarth, S. Ehlert and S. Grimme., J. Chem. Theory Comput., 2019,
     15, 1652-1671. DOI: 10.1021/acs.jctc.8b01176
   for GFN1-xTB:
   * S. Grimme, C. Bannwarth, P. Shushkov, J. Chem. Theory Comput., 2017,
     13, 1989-2009. DOI: 10.1021/acs.jctc.7b00118
   for GFN0-xTB:
   * P. Pracht, E. Caldeweyher, S. Ehlert, S. Grimme, ChemRxiv, 2019, preprint.
     DOI: 10.26434/chemrxiv.8326202.v1
   for GFN-FF:
   * S. Spicher and S. Grimme, Angew. Chem. Int. Ed., 2020, 59, 15665-15673.
     DOI: 10.1002/anie.202004239
   
   for ALPB and GBSA implicit solvation:
   * S. Ehlert, M. Stahn, S. Spicher, S. Grimme, J. Chem. Theory Comput.,
     2021, 17, 4250-4261. DOI: 10.1021/acs.jctc.1c00471
   
   for ddCOSMO and CPCM-X implicit solvation:
   * M. Stahn, S. Ehlert, S. Grimme, J. Phys. Chem. A,
     2023, XX, XXXX-XXXX. DOI: 10.1021/acs.jpca.3c04382
   
   for DFT-D4:
   * E. Caldeweyher, C. Bannwarth and S. Grimme, J. Chem. Phys., 2017,
     147, 034112. DOI: 10.1063/1.4993215
   * E. Caldeweyher, S. Ehlert, A. Hansen, H. Neugebauer, S. Spicher,
     C. Bannwarth and S. Grimme, J. Chem. Phys., 2019, 150, 154122.
     DOI: 10.1063/1.5090222
   * E. Caldeweyher, J.-M. Mewes, S. Ehlert and S. Grimme, Phys. Chem. Chem. Phys.
     2020, 22, 8499-8512. DOI: 10.1039/D0CP00502A
   
   for sTDA-xTB:
   * S. Grimme and C. Bannwarth, J. Chem. Phys., 2016, 145, 054103.
     DOI: 10.1063/1.4959605
   
   in the mass-spec context:
   * V. Asgeirsson, C. Bauer and S. Grimme, Chem. Sci., 2017, 8, 4879.
     DOI: 10.1039/c7sc00601b
   * J. Koopman and S. Grimme, ACS Omega 2019, 4, 12, 15120-15133.
     DOI: 10.1021/acsomega.9b02011
   
   for metadynamics refer to:
   * S. Grimme, J. Chem. Theory Comput., 2019, 155, 2847-2862
     DOI: 10.1021/acs.jctc.9b00143
   
   for SPH calculations refer to:
   * S. Spicher and S. Grimme, J. Chem. Theory Comput., 2021, 17, 1701-1714
     DOI: 10.1021/acs.jctc.0c01306
   
   for ONIOM refer to:
   * C. Plett, A. Katbashev, S. Ehlert, S. Grimme, M. Bursch,
     Phys. Chem. Chem. Phys., 2023, 25, 17860-17868. DOI: 10.1039/D3CP02178E
   
   for DIPRO refer to:
   * J. Kohn, N. Gildemeister, S. Grimme, D. Fazzi, A. Hansen,
     J. Chem. Phys., 2023, just accepted.
   
   for PTB refer to:
   * S. Grimme, M. Mueller, A. Hansen, J. Chem. Phys., 2023, 158, 124111.
     DOI: 10.1063/5.0137838
   
   with help from (in alphabetical order)
   P. Atkinson, C. Bannwarth, F. Bohle, G. Brandenburg, E. Caldeweyher
   M. Checinski, S. Dohm, S. Ehlert, S. Ehrlich, I. Gerasimov, C. Hölzer
   A. Katbashev, J. Kohn, J. Koopman, C. Lavigne, S. Lehtola, F. März, M. Müller,
   F. Musil, H. Neugebauer, J. Pisarek, C. Plett, P. Pracht, F. Pultar,
   J. Seibert, P. Shushkov, S. Spicher, M. Stahn, M. Steiner, T. Strunk,
   J. Stückrath, T. Rose, and J. Unsleber
   
 * started run on 2025/05/05 at 17:13:10.459     
   ID    Z sym.   atoms
    1    7 N      1, 8, 14, 20, 29, 40, 45, 54, 62, 68, 71, 72, 80, 81, 86,
                  97, 106
    2    6 C      2, 3, 5, 7, 9, 10, 12, 15, 16, 18, 21, 22, 24-26, 30, 31,
                  33-39, 41, 42, 44, 46, 47, 49-51, 55, 56, 58-61, 63, 64,
                  66, 67, 69, 70, 73, 74, 76-78, 82, 83, 85, 87, 88, 90-96,
                  98, 99, 101-103, 107, 108, 110, 112
    3    8 O      4, 6, 11, 13, 17, 19, 23, 27, 28, 32, 43, 48, 52, 53, 57,
                  65, 75, 79, 84, 89, 100, 104, 105, 109, 111
    4    1 H      113-231

           -------------------------------------------------
          |                Calculation Setup                |
           -------------------------------------------------

          program call               : xtb /tmp/tmpi0fasrb4/HID/input.xyz --alpb ether --chrg -5 --input /tmp/tmpi0fasrb4/HID/constraints.inp --gfn 2
          hostname                   : fedora
          coordinate file            : /tmp/tmpi0fasrb4/HID/input.xyz
          omp threads                :                    32


molecular fragmentation (1/2 indicates fragments):
111111122222222222222222222222222222222222222222222222222222222222222222
222222222222222222222222222222222222222222222222111111111222222222222222
222222222222222222222222222222222222222222222222222222222222222222222222
222222222222222
# atoms in fragment 1/2:    16   215
 fragment masses (1/2) :      103.12     1495.68
CMA distance (Bohr)    :  12.168
constraining FC (au)   :  0.0500
########################################################################
[WARNING] Please study the warnings concerning your input carefully
-1- readin_getIntValue: could not parse 'S'
########################################################################

           -------------------------------------------------
          |                 G F N 2 - x T B                 |
           -------------------------------------------------

        Reference                      10.1021/acs.jctc.8b01176
      * Hamiltonian:
        H0-scaling (s, p, d)           1.850000    2.230000    2.230000
        zeta-weighting                 0.500000
      * Dispersion:
        s8                             2.700000
        a1                             0.520000
        a2                             5.000000
        s9                             5.000000
      * Repulsion:
        kExp                           1.500000    1.000000
        rExp                           1.000000
      * Coulomb:
        alpha                          2.000000
        third order                    shell-resolved
        anisotropic                    true
        a3                             3.000000
        a5                             4.000000
        cn-shift                       1.200000
        cn-exp                         4.000000
        max-rad                        5.000000

      * Solvation model:               ALPB
        Solvent                        ether
        Parameter file                 internal GFN2-xTB/ALPB
        Dielectric constant                4.3300E+00
        Reference state                gsolv [1 M gas/solution]
        Free energy shift                  4.9534E-03 Eh       3.1083E+00 kcal/mol
        Temperature                        2.9815E+02 K
        Density                            7.1300E-01 kg/L
        Solvent mass                       7.4120E+01 g/mol
        Interaction kernel             P16
        Born radius scaling (c1)           1.5847E+00
        Born radii integrator          GBOBC
        Born offset                        0.0000E+00 a0       0.0000E+00 AA
        H-bond correction              true
        Ion screening                  false
        Surface tension                    1.0000E-05 Eh       1.5569E+01 dyn/cm
        Grid points                               230 per atom

          ...................................................
          :                      SETUP                      :
          :.................................................:
          :  # basis functions                 567          :
          :  # atomic orbitals                 567          :
          :  # shells                          343          :
          :  # electrons                       639          :
          :  max. iterations                   250          :
          :  Hamiltonian                  GFN2-xTB          :
          :  restarted?                      false          :
          :  GBSA solvation                   true          :
          :  PC potential                    false          :
          :  electronic temp.          300.0000000     K    :
          :  accuracy                    1.0000000          :
          :  -> integral cutoff          0.2500000E+02      :
          :  -> integral neglect         0.1000000E-07      :
          :  -> SCF convergence          0.1000000E-05 Eh   :
          :  -> wf. convergence          0.1000000E-03 e    :
          :  Broyden damping             0.4000000          :
          :  net charge                         -5          :
          :  unpaired electrons                  0          :
          ...................................................

 iter      E             dE          RMSdq      gap      omega  full diag
   1   -366.3961172 -0.366396E+03  0.450E+00    0.01       0.0  T
   2   -366.1060677  0.290049E+00  0.310E+00    0.99       1.0  T
   3   -367.0115696 -0.905502E+00  0.220E+00    0.27       1.0  T
   4   -367.4050889 -0.393519E+00  0.138E+00    0.65       1.0  T
   5   -367.5146318 -0.109543E+00  0.946E-01    0.03       1.0  T
   6   -367.2074196  0.307212E+00  0.127E+00    0.26       1.0  T
   7   -367.5167202 -0.309301E+00  0.746E-01    0.07       1.0  T
   8   -367.2217515  0.294969E+00  0.132E+00    0.06       1.0  T
   9   -367.4819137 -0.260162E+00  0.825E-01    0.31       1.0  T
  10   -367.5686929 -0.867792E-01  0.576E-01    0.06       1.0  T
  11   -367.5427174  0.259755E-01  0.658E-01    0.05       1.0  T
  12   -367.6113982 -0.686808E-01  0.426E-01    0.01       1.0  T
  13   -367.3149178  0.296480E+00  0.112E+00    0.09       1.0  T
  14   -367.5822745 -0.267357E+00  0.539E-01    0.05       1.0  T
  15   -367.6229073 -0.406328E-01  0.360E-01    0.03       1.0  T
  16   -367.6349020 -0.119947E-01  0.309E-01    0.02       1.0  T
  17   -367.6437614 -0.885937E-02  0.263E-01    0.03       1.0  T
  18   -367.6040673  0.396941E-01  0.433E-01    0.06       1.0  T
  19   -367.6597866 -0.557193E-01  0.115E-01    0.00       1.0  T
  20   -367.6571224  0.266420E-02  0.150E-01    0.01       1.0  T
  21   -367.6592870 -0.216460E-02  0.114E-01    0.01       1.0  T
  22   -367.6618527 -0.256574E-02  0.696E-02    0.00       1.0  T
  23   -367.6632220 -0.136932E-02  0.238E-02    0.00       1.0  T
  24   -367.6631654  0.566145E-04  0.272E-02    0.00       1.0  T
  25   -367.6633399 -0.174520E-03  0.131E-02    0.00       1.0  T
  26   -367.6633878 -0.478504E-04  0.419E-03    0.00       1.6  T
  27   -367.6633912 -0.340689E-05  0.226E-03    0.00       2.9  T
  28   -367.6633921 -0.965047E-06  0.154E-03    0.00       4.3  T
  29   -367.6633926 -0.443284E-06  0.964E-04    0.00       6.8  T
  30   -367.6633929 -0.278418E-06  0.109E-04    0.00      60.3  T

   *** convergence criteria satisfied after 30 iterations ***

         #    Occupation            Energy/Eh            Energy/eV
      -------------------------------------------------------------
         1        2.0000           -0.6482910             -17.6409
       ...           ...                  ...                  ...
       314        2.0000           -0.2385787              -6.4921
       315        2.0000           -0.2265058              -6.1635
       316        2.0000           -0.2201994              -5.9919
       317        2.0000           -0.2066046              -5.6220
       318        2.0000           -0.1897466              -5.1633
       319        1.7607           -0.1763212              -4.7979
       320        0.3184           -0.1722960              -4.6884 (HOMO)
       321        0.2921           -0.1721912              -4.6856 (LUMO)
       322        0.2253           -0.1718875              -4.6773
       323        0.1979           -0.1717417              -4.6733
       324        0.1043           -0.1710587              -4.6547
       325        0.0530           -0.1703769              -4.6362
       ...           ...                  ...                  ...
       567                          1.0682221              29.0678
      -------------------------------------------------------------
                  HL-Gap            0.0001049 Eh            0.0029 eV
             Fermi-level           -0.1741389 Eh           -4.7386 eV

 SCC (total)                   0 d,  0 h,  0 min,  1.170 sec
 SCC setup                      ...        0 min,  0.004 sec (  0.314%)
 Dispersion                     ...        0 min,  0.008 sec (  0.678%)
 classical contributions        ...        0 min,  0.000 sec (  0.036%)
 integral evaluation            ...        0 min,  0.014 sec (  1.232%)
 iterations                     ...        0 min,  1.072 sec ( 91.637%)
 molecular gradient             ...        0 min,  0.064 sec (  5.488%)
 printout                       ...        0 min,  0.007 sec (  0.612%)

         :::::::::::::::::::::::::::::::::::::::::::::::::::::
         ::                     SUMMARY                     ::
         :::::::::::::::::::::::::::::::::::::::::::::::::::::
         :: total energy            -362.540669040567 Eh    ::
         :: total w/o Gsasa/hb      -362.461468279762 Eh    ::
         :: gradient norm              0.871685174284 Eh/a0 ::
         :: HOMO-LUMO gap              0.002853207707 eV    ::
         ::.................................................::
         :: SCC energy              -367.635132429400 Eh    ::
         :: -> isotropic ES            2.276003938149 Eh    ::
         :: -> anisotropic ES          0.018054295002 Eh    ::
         :: -> anisotropic XC          0.127281800584 Eh    ::
         :: -> dispersion             -0.309467631877 Eh    ::
         :: -> Gsolv                  -0.952866095097 Eh    ::
         ::    -> Gelec               -0.873665334292 Eh    ::
         ::    -> Gsasa               -0.072798697648 Eh    ::
         ::    -> Ghb                 -0.011355500735 Eh    ::
         ::    -> Gshift               0.004953437577 Eh    ::
         :: repulsion energy           5.094463388833 Eh    ::
         :: add. restraining           0.000000000000 Eh    ::
         :: total charge              -5.000000000138 e     ::
         :::::::::::::::::::::::::::::::::::::::::::::::::::::

           -------------------------------------------------
          |                Property Printout                |
           -------------------------------------------------

    * Orbital Energies and Occupations

         #    Occupation            Energy/Eh            Energy/eV
      -------------------------------------------------------------
         1        2.0000           -0.6482910             -17.6409
       ...           ...                  ...                  ...
       308        2.0000           -0.2815058              -7.6602
       309        2.0000           -0.2744241              -7.4675
       310        2.0000           -0.2659644              -7.2373
       311        2.0000           -0.2490098              -6.7759
       312        2.0000           -0.2467263              -6.7138
       313        2.0000           -0.2421655              -6.5897
       314        2.0000           -0.2385787              -6.4921
       315        2.0000           -0.2265058              -6.1635
       316        2.0000           -0.2201994              -5.9919
       317        2.0000           -0.2066046              -5.6220
       318        2.0000           -0.1897466              -5.1633
       319        1.7607           -0.1763212              -4.7979
       320        0.3184           -0.1722960              -4.6884 (HOMO)
       321        0.2921           -0.1721912              -4.6856 (LUMO)
       322        0.2253           -0.1718875              -4.6773
       323        0.1979           -0.1717417              -4.6733
       324        0.1043           -0.1710587              -4.6547
       325        0.0530           -0.1703769              -4.6362
       326        0.0291           -0.1697910              -4.6202
       327        0.0186           -0.1693553              -4.6084
       328        0.0006           -0.1660523              -4.5185
       329        0.0000           -0.1628239              -4.4307
       330                         -0.1563540              -4.2546
       331                         -0.1549979              -4.2177
       ...                                ...                  ...
       567                          1.0682221              29.0678
      -------------------------------------------------------------
                  HL-Gap            0.0001049 Eh            0.0029 eV
             Fermi-level           -0.1741389 Eh           -4.7386 eV

     #   Z          covCN         q      C6AA      α(0)
     1   7 N        2.631    -0.363    29.351     8.046
     2   6 C        3.784     0.032    20.061     6.380
     3   6 C        2.777     0.077    26.264     8.394
     4   8 O        0.856    -0.469    23.112     6.445
     5   6 C        3.727     0.110    18.872     6.202
     6   8 O        1.652    -0.469    22.245     6.367
     7   6 C        3.757    -0.112    22.690     6.791
     8   7 N        2.630    -0.378    29.767     8.103
     9   6 C        3.788     0.028    20.108     6.387
    10   6 C        2.760     0.267    22.491     7.766
    11   8 O        0.859    -0.511    24.031     6.572
    12   6 C        3.682     0.090    19.288     6.289
    13   8 O        1.654    -0.463    22.114     6.348
    14   7 N        2.690    -0.167    24.624     7.370
    15   6 C        3.797     0.029    20.093     6.383
    16   6 C        2.764     0.162    24.480     8.103
    17   8 O        0.856    -0.446    22.633     6.378
    18   6 C        3.681     0.072    19.582     6.338
    19   8 O        1.652    -0.472    22.301     6.375
    20   7 N        2.630    -0.363    29.352     8.046
    21   6 C        3.785     0.049    19.769     6.333
    22   6 C        2.764     0.173    24.260     8.066
    23   8 O        0.856    -0.455    22.803     6.402
    24   6 C        3.809    -0.033    21.150     6.546
    25   6 C        3.808    -0.076    21.950     6.669
    26   6 C        2.689     0.362    20.851     7.473
    27   8 O        0.857    -0.657    27.566     7.039
    28   8 O        0.857    -0.639    27.087     6.978
    29   7 N        2.630    -0.371    29.587     8.078
    30   6 C        3.787     0.042    19.877     6.350
    31   6 C        2.754     0.260    22.619     7.788
    32   8 O        0.859    -0.521    24.263     6.604
    33   6 C        3.811    -0.062    21.690     6.629
    34   6 C        2.960    -0.007    28.184     8.708
    35   6 C        2.919    -0.055    29.365     8.886
    36   6 C        2.920    -0.055    29.361     8.886
    37   6 C        2.915    -0.056    29.396     8.891
    38   6 C        2.915    -0.049    29.210     8.863
    39   6 C        2.916    -0.058    29.450     8.899
    40   7 N        2.687    -0.184    24.986     7.424
    41   6 C        3.794     0.036    19.975     6.364
    42   6 C        2.750     0.274    22.373     7.745
    43   8 O        0.858    -0.497    23.711     6.529
    44   6 C        3.759    -0.119    22.829     6.812
    45   7 N        2.686    -0.184    24.996     7.425
    46   6 C        3.795     0.022    20.205     6.401
    47   6 C        2.755     0.263    22.574     7.780
    48   8 O        0.858    -0.505    23.889     6.553
    49   6 C        3.810    -0.057    21.598     6.615
    50   6 C        3.805    -0.093    22.269     6.718
    51   6 C        2.687     0.358    20.920     7.485
    52   8 O        0.856    -0.638    27.067     6.975
    53   8 O        0.856    -0.642    27.171     6.989
    54   7 N        2.690    -0.177    24.842     7.402
    55   6 C        3.802     0.024    20.169     6.394
    56   6 C        2.761     0.276    22.330     7.739
    57   8 O        0.859    -0.510    23.997     6.568
    58   6 C        3.855    -0.023    20.947     6.509
    59   6 C        3.810    -0.066    21.765     6.641
    60   6 C        3.757    -0.109    22.637     6.783
    61   6 C        3.758    -0.109    22.627     6.782
    62   7 N        2.689    -0.185    25.009     7.427
    63   6 C        3.803     0.039    19.914     6.353
    64   6 C        2.755     0.281    22.241     7.723
    65   8 O        0.858    -0.506    23.916     6.557
    66   6 C        3.813    -0.044    21.355     6.577
    67   6 C        3.091    -0.010    28.163     8.698
    68   7 N        2.846    -0.141    24.050     7.284
    69   6 C        3.054     0.024    27.408     8.586
    70   6 C        2.104    -0.104    33.736     9.385
    71   7 N        1.981    -0.360    30.179     8.147
    72   7 N        2.688    -0.171    24.697     7.381
    73   6 C        3.796     0.034    20.008     6.369
    74   6 C        2.755     0.273    22.377     7.746
    75   8 O        0.858    -0.496    23.687     6.525
    76   6 C        3.808    -0.062    21.684     6.629
    77   6 C        3.808    -0.096    22.323     6.726
    78   6 C        2.742     0.283    22.209     7.716
    79   8 O        0.858    -0.506    23.916     6.557
    80   7 N        2.639    -0.271    27.013     7.719
    81   7 N        2.686    -0.175    24.798     7.396
    82   6 C        3.794     0.030    20.085     6.382
    83   6 C        2.756     0.273    22.392     7.749
    84   8 O        0.859    -0.507    23.935     6.559
    85   6 C        3.758    -0.125    22.942     6.829
    86   7 N        2.686    -0.170    24.679     7.378
    87   6 C        3.800     0.028    20.098     6.383
    88   6 C        2.755     0.267    22.496     7.767
    89   8 O        0.859    -0.504    23.879     6.552
    90   6 C        3.815    -0.069    21.807     6.646
    91   6 C        2.973     0.012    27.732     8.638
    92   6 C        2.933    -0.047    29.174     8.858
    93   6 C        2.932    -0.038    28.951     8.824
    94   6 C        2.923    -0.043    29.067     8.841
    95   6 C        2.927    -0.043    29.060     8.840
    96   6 C        2.929    -0.049    29.222     8.865
    97   7 N        2.689    -0.184    24.984     7.424
    98   6 C        3.803     0.028    20.099     6.383
    99   6 C        2.761     0.280    22.264     7.727
   100   8 O        0.859    -0.505    23.905     6.555
   101   6 C        3.808    -0.043    21.342     6.576
   102   6 C        3.806    -0.082    22.068     6.687
   103   6 C        2.688     0.364    20.830     7.469
   104   8 O        0.857    -0.619    26.594     6.914
   105   8 O        0.856    -0.659    27.615     7.046
   106   7 N        2.690    -0.171    24.704     7.382
   107   6 C        3.798     0.021    20.221     6.403
   108   6 C        2.762     0.159    24.552     8.115
   109   8 O        0.856    -0.459    22.898     6.416
   110   6 C        3.726     0.107    18.913     6.209
   111   8 O        1.652    -0.476    22.389     6.387
   112   6 C        3.757    -0.130    23.042     6.844
   113   1 H        0.980    -0.036     3.744     3.024
   114   1 H        0.980    -0.026     3.536     2.939
   115   1 H        0.980    -0.021     3.443     2.900
   116   1 H        0.980     0.005     2.966     2.691
   117   1 H        0.980     0.003     2.993     2.703
   118   1 H        0.980    -0.026     3.539     2.940
   119   1 H        0.980     0.022     2.692     2.564
   120   1 H        0.980    -0.039     3.813     3.051
   121   1 H        0.860     0.145     1.434     1.876
   122   1 H        0.860     0.150     1.399     1.853
   123   1 H        0.927     0.011     2.878     2.653
   124   1 H        0.929     0.068     2.104     2.268
   125   1 H        0.927     0.053     2.286     2.364
   126   1 H        0.804     0.290     0.752     1.362
   127   1 H        0.927     0.036     2.497     2.471
   128   1 H        0.926     0.047     2.356     2.400
   129   1 H        0.927     0.048     2.345     2.394
   130   1 H        0.860     0.161     1.327     1.804
   131   1 H        0.860     0.162     1.322     1.801
   132   1 H        0.926     0.024     2.673     2.557
   133   1 H        0.927     0.036     2.506     2.475
   134   1 H        0.927     0.043     2.404     2.425
   135   1 H        0.804     0.321     0.661     1.277
   136   1 H        0.861     0.232     0.956     1.532
   137   1 H        0.927     0.067     2.121     2.278
   138   1 H        0.929     0.018     2.758     2.597
   139   1 H        0.927     0.038     2.475     2.460
   140   1 H        0.927     0.082     1.962     2.191
   141   1 H        0.804     0.315     0.677     1.293
   142   1 H        0.860     0.142     1.458     1.892
   143   1 H        0.860     0.148     1.412     1.861
   144   1 H        0.926     0.005     2.968     2.694
   145   1 H        0.929     0.024     2.672     2.556
   146   1 H        0.927     0.041     2.441     2.443
   147   1 H        0.926     0.020     2.734     2.586
   148   1 H        0.927     0.012     2.858     2.644
   149   1 H        0.927     0.018     2.769     2.602
   150   1 H        0.860     0.142     1.453     1.889
   151   1 H        0.860     0.166     1.296     1.783
   152   1 H        0.927     0.022     2.710     2.574
   153   1 H        0.927     0.043     2.412     2.429
   154   1 H        0.926     0.050     2.314     2.379
   155   1 H        0.929     0.028     2.607     2.525
   156   1 H        0.929     0.015     2.810     2.621
   157   1 H        0.929     0.029     2.598     2.521
   158   1 H        0.929     0.024     2.666     2.553
   159   1 H        0.929     0.028     2.617     2.530
   160   1 H        0.861     0.222     1.000     1.566
   161   1 H        0.927     0.069     2.099     2.266
   162   1 H        0.927     0.059     2.215     2.328
   163   1 H        0.927     0.068     2.103     2.268
   164   1 H        0.926     0.068     2.108     2.270
   165   1 H        0.861     0.202     1.093     1.638
   166   1 H        0.927     0.075     2.032     2.229
   167   1 H        0.927     0.051     2.313     2.378
   168   1 H        0.927     0.053     2.285     2.364
   169   1 H        0.927     0.031     2.579     2.511
   170   1 H        0.926     0.033     2.549     2.496
   171   1 H        0.861     0.192     1.148     1.678
   172   1 H        0.927     0.077     2.011     2.218
   173   1 H        0.927     0.037     2.492     2.469
   174   1 H        0.927     0.037     2.483     2.464
   175   1 H        0.927     0.050     2.314     2.379
   176   1 H        0.927     0.051     2.305     2.374
   177   1 H        0.927     0.033     2.542     2.493
   178   1 H        0.927     0.053     2.284     2.363
   179   1 H        0.927     0.031     2.576     2.510
   180   1 H        0.926     0.049     2.333     2.388
   181   1 H        0.927     0.045     2.383     2.414
   182   1 H        0.861     0.222     1.002     1.568
   183   1 H        0.927     0.066     2.134     2.284
   184   1 H        0.927     0.032     2.563     2.503
   185   1 H        0.927     0.036     2.503     2.474
   186   1 H        0.929    -0.044     3.936     3.102
   187   1 H        0.861     0.212     1.046     1.602
   188   1 H        0.927     0.065     2.141     2.288
   189   1 H        0.927     0.064     2.148     2.292
   190   1 H        0.927     0.069     2.092     2.262
   191   1 H        0.927     0.058     2.225     2.332
   192   1 H        0.927     0.081     1.967     2.193
   193   1 H        0.861     0.224     0.992     1.560
   194   1 H        0.861     0.226     0.984     1.554
   195   1 H        0.861     0.223     0.998     1.565
   196   1 H        0.927     0.075     2.029     2.227
   197   1 H        0.927     0.066     2.131     2.283
   198   1 H        0.926     0.068     2.109     2.271
   199   1 H        0.927     0.065     2.136     2.286
   200   1 H        0.861     0.215     1.031     1.590
   201   1 H        0.927     0.084     1.937     2.176
   202   1 H        0.927     0.064     2.147     2.291
   203   1 H        0.927     0.054     2.264     2.353
   204   1 H        0.929     0.043     2.402     2.424
   205   1 H        0.929     0.035     2.522     2.483
   206   1 H        0.929     0.044     2.395     2.420
   207   1 H        0.929     0.036     2.503     2.474
   208   1 H        0.929     0.040     2.444     2.445
   209   1 H        0.861     0.225     0.987     1.556
   210   1 H        0.927     0.069     2.092     2.262
   211   1 H        0.927     0.037     2.494     2.469
   212   1 H        0.927     0.044     2.400     2.423
   213   1 H        0.927     0.025     2.663     2.552
   214   1 H        0.927     0.022     2.704     2.572
   215   1 H        0.861     0.209     1.059     1.612
   216   1 H        0.927     0.064     2.149     2.292
   217   1 H        0.929     0.015     2.814     2.623
   218   1 H        0.927     0.057     2.230     2.335
   219   1 H        0.804     0.315     0.678     1.293
   220   1 H        0.926     0.053     2.281     2.362
   221   1 H        0.927     0.051     2.307     2.375
   222   1 H        0.927     0.063     2.164     2.300
   223   1 H        0.995     0.081     1.958     2.186
   224   1 H        0.980     0.027     2.621     2.530
   225   1 H        0.980     0.020     2.720     2.577
   226   1 H        0.980    -0.006     3.162     2.778
   227   1 H        0.980    -0.006     3.150     2.773
   228   1 H        0.980     0.025     2.644     2.541
   229   1 H        0.980    -0.020     3.415     2.888
   230   1 H        0.980     0.036     2.491     2.466
   231   1 H        0.858     0.155     1.369     1.833

 Mol. C6AA /au·bohr⁶  :     517084.858015
 Mol. C8AA /au·bohr⁸  :   11347451.054176
 Mol. α(0) /au        :       1082.148026


Wiberg/Mayer (AO) data.
largest (>0.10) Wiberg bond orders for each atom

 ---------------------------------------------------------------------------
     #   Z sym  total        # sym  WBO       # sym  WBO       # sym  WBO
 ---------------------------------------------------------------------------
     1   7 N    2.992 --     2 C    0.999   121 H    0.965   122 H    0.957
     2   6 C    3.981 --     1 N    0.999   123 H    0.960     5 C    0.957
                             3 C    0.956
     3   6 C    3.696 --     4 O    1.649     2 C    0.956   124 H    0.879
     4   8 O    1.881 --     3 C    1.649
     5   6 C    3.943 --     7 C    1.003     6 O    0.976   125 H    0.964
                             2 C    0.957
     6   8 O    1.948 --     5 C    0.976   126 H    0.862
     7   6 C    3.993 --     5 C    1.003   129 H    0.985   127 H    0.983
                           128 H    0.981
     8   7 N    2.988 --     9 C    1.010   130 H    0.961   131 H    0.959
     9   6 C    3.988 --     8 N    1.010    12 C    0.972   132 H    0.962
                            10 C    0.940
    10   6 C    3.949 --    11 O    1.607    14 N    1.333     9 C    0.940
    11   8 O    1.938 --    10 C    1.607    14 N    0.206
    12   6 C    3.960 --    13 O    0.997     9 C    0.972   134 H    0.971
                           133 H    0.969
    13   8 O    1.966 --    12 C    0.997   135 H    0.870
    14   7 N    3.491 --    10 C    1.333    15 C    0.971   136 H    0.891
                            11 O    0.206
    15   6 C    3.961 --    14 N    0.971    16 C    0.970    18 C    0.962
                           137 H    0.955
    16   6 C    3.735 --    17 O    1.703    15 C    0.970   138 H    0.954
    17   8 O    1.823 --    16 C    1.703
    18   6 C    3.938 --    19 O    0.996   139 H    0.971    15 C    0.962
                           140 H    0.949
    19   8 O    1.933 --    18 C    0.996   141 H    0.883
    20   7 N    2.985 --    21 C    1.005   142 H    0.967   143 H    0.949
    21   6 C    3.986 --    20 N    1.005    22 C    0.981    24 C    0.964
                           144 H    0.959
    22   6 C    3.708 --    23 O    1.722    21 C    0.981   145 H    0.955
    23   8 O    1.845 --    22 C    1.722
    24   6 C    3.983 --    25 C    1.005   146 H    0.977   147 H    0.974
                            21 C    0.964
    25   6 C    3.992 --    24 C    1.005   148 H    0.970   149 H    0.968
                            26 C    0.934
    26   6 C    3.940 --    28 O    1.517    27 O    1.465    25 C    0.934
    27   8 O    1.758 --    26 C    1.465    28 O    0.222
    28   8 O    1.811 --    26 C    1.517    27 O    0.222
    29   7 N    2.989 --    30 C    1.011   150 H    0.965   151 H    0.957
    30   6 C    3.982 --    29 N    1.011    33 C    0.963   152 H    0.952
                            31 C    0.942
    31   6 C    3.904 --    32 O    1.582    40 N    1.304    30 C    0.942
    32   8 O    1.929 --    31 C    1.582    40 N    0.186
    33   6 C    3.989 --    34 C    1.006   154 H    0.974    30 C    0.963
                           153 H    0.955
    34   6 C    3.925 --    35 C    1.407    36 C    1.378    33 C    1.006
    35   6 C    3.961 --    37 C    1.429    34 C    1.407   155 H    0.973
                            38 C    0.100
    36   6 C    3.924 --    38 C    1.430    34 C    1.378   156 H    0.973
    37   6 C    3.924 --    35 C    1.429    39 C    1.402   157 H    0.975
    38   6 C    3.964 --    39 C    1.432    36 C    1.430   158 H    0.975
                            35 C    0.100
    39   6 C    3.931 --    38 C    1.432    37 C    1.402   159 H    0.975
    40   7 N    3.454 --    31 C    1.304    41 C    0.969   160 H    0.920
                            32 O    0.186
    41   6 C    3.962 --    44 C    0.994    40 N    0.969   161 H    0.954
                            42 C    0.932
    42   6 C    3.926 --    43 O    1.633    45 N    1.287    41 C    0.932
    43   8 O    1.949 --    42 C    1.633    45 N    0.189
    44   6 C    3.986 --    41 C    0.994   162 H    0.985   164 H    0.981
                           163 H    0.980
    45   7 N    3.442 --    42 C    1.287    46 C    0.965   165 H    0.926
                            43 O    0.189
    46   6 C    3.957 --    49 C    0.976    45 N    0.965   166 H    0.957
                            47 C    0.939
    47   6 C    3.898 --    48 O    1.591    54 N    1.288    46 C    0.939
    48   8 O    1.913 --    47 C    1.591    54 N    0.183
    49   6 C    3.986 --    50 C    1.006   167 H    0.976    46 C    0.976
                           168 H    0.970
    50   6 C    3.987 --    49 C    1.006   170 H    0.973   169 H    0.968
                            51 C    0.928
    51   6 C    3.941 --    52 O    1.499    53 O    1.493    50 C    0.928
    52   8 O    1.789 --    51 C    1.499    53 O    0.221
    53   8 O    1.786 --    51 C    1.493    52 O    0.221
    54   7 N    3.444 --    47 C    1.288    55 C    0.968   171 H    0.929
                            48 O    0.183
    55   6 C    3.958 --    58 C    0.969    54 N    0.968   172 H    0.956
                            56 C    0.937
    56   6 C    3.944 --    57 O    1.583    62 N    1.341    55 C    0.937
    57   8 O    1.924 --    56 C    1.583    62 N    0.200
    58   6 C    3.988 --    60 C    1.005    59 C    0.994    55 C    0.969
                           173 H    0.962
    59   6 C    3.996 --    61 C    1.021    58 C    0.994   175 H    0.977
                           174 H    0.976
    60   6 C    3.994 --    58 C    1.005   176 H    0.984   178 H    0.981
                           177 H    0.980
    61   6 C    3.995 --    59 C    1.021   179 H    0.985   180 H    0.985
                           181 H    0.983
    62   7 N    3.493 --    56 C    1.341    63 C    0.969   182 H    0.889
                            57 O    0.200
    63   6 C    3.963 --    62 N    0.969    66 C    0.964   183 H    0.953
                            64 C    0.939
    64   6 C    3.943 --    65 O    1.587    72 N    1.329    63 C    0.939
    65   8 O    1.944 --    64 C    1.587    72 N    0.192
    66   6 C    3.987 --    67 C    0.998   184 H    0.973   185 H    0.965
                            63 C    0.964
    67   6 C    3.912 --    69 C    1.567    68 N    1.147    66 C    0.998
                            70 C    0.114
    68   7 N    3.515 --    70 C    1.268    67 C    1.147   231 H    0.915
    69   6 C    3.942 --    67 C    1.567    71 N    1.263   186 H    0.971
    70   6 C    3.159 --    71 N    1.528    68 N    1.268    67 C    0.114
    71   7 N    2.959 --    70 C    1.528    69 C    1.263
    72   7 N    3.483 --    64 C    1.329    73 C    0.968   187 H    0.913
                            65 O    0.192
    73   6 C    3.959 --    76 C    0.978    72 N    0.968   188 H    0.957
                            74 C    0.940
    74   6 C    3.952 --    75 O    1.611    81 N    1.322    73 C    0.940
    75   8 O    1.942 --    74 C    1.611    81 N    0.198
    76   6 C    3.988 --    77 C    0.993    73 C    0.978   190 H    0.973
                           189 H    0.972
    77   6 C    3.995 --    76 C    0.993   191 H    0.975    78 C    0.967
                           192 H    0.961
    78   6 C    3.945 --    79 O    1.639    80 N    1.316    77 C    0.967
    79   8 O    1.935 --    78 C    1.639    80 N    0.201
    80   7 N    3.409 --    78 C    1.316   194 H    0.929   193 H    0.925
                            79 O    0.201
    81   7 N    3.476 --    74 C    1.322    82 C    0.970   195 H    0.903
                            75 O    0.198
    82   6 C    3.962 --    85 C    0.994    81 N    0.970   196 H    0.957
                            83 C    0.935
    83   6 C    3.949 --    84 O    1.610    86 N    1.328    82 C    0.935
    84   8 O    1.923 --    83 C    1.610    86 N    0.198
    85   6 C    3.986 --    82 C    0.994   199 H    0.983   197 H    0.982
                           198 H    0.982
    86   7 N    3.489 --    83 C    1.328    87 C    0.977   200 H    0.908
                            84 O    0.198
    87   6 C    3.963 --    86 N    0.977    90 C    0.966   201 H    0.952
                            88 C    0.927
    88   6 C    3.950 --    89 O    1.606    97 N    1.338    87 C    0.927
    89   8 O    1.931 --    88 C    1.606    97 N    0.206
    90   6 C    3.991 --    91 C    1.012   203 H    0.970    87 C    0.966
                           202 H    0.929
    91   6 C    3.979 --    93 C    1.414    92 C    1.402    90 C    1.012
                            96 C    0.107
    92   6 C    3.983 --    94 C    1.446    91 C    1.402   204 H    0.972
                            95 C    0.110
    93   6 C    3.991 --    95 C    1.446    91 C    1.414   205 H    0.968
                            94 C    0.108
    94   6 C    3.993 --    92 C    1.446    96 C    1.441   206 H    0.973
                            93 C    0.108
    95   6 C    3.984 --    93 C    1.446    96 C    1.429   207 H    0.972
                            92 C    0.110
    96   6 C    3.984 --    94 C    1.441    95 C    1.429   208 H    0.974
                            91 C    0.107
    97   7 N    3.494 --    88 C    1.338    98 C    0.972   209 H    0.886
                            89 O    0.206
    98   6 C    3.962 --    97 N    0.972   101 C    0.972   210 H    0.952
                            99 C    0.945
    99   6 C    3.950 --   100 O    1.611   106 N    1.316    98 C    0.945
   100   8 O    1.917 --    99 C    1.611   106 N    0.194
   101   6 C    3.990 --   102 C    1.005   211 H    0.979    98 C    0.972
                           212 H    0.969
   102   6 C    3.988 --   101 C    1.005   213 H    0.973   214 H    0.971
                           103 C    0.926
   103   6 C    3.940 --   104 O    1.519   105 O    1.475   102 C    0.926
   104   8 O    1.814 --   103 C    1.519   105 O    0.222
   105   8 O    1.765 --   103 C    1.475   104 O    0.222
   106   7 N    3.470 --    99 C    1.316   107 C    0.968   215 H    0.910
                           100 O    0.194
   107   6 C    3.960 --   106 N    0.968   110 C    0.962   108 C    0.959
                           216 H    0.958
   108   6 C    3.651 --   109 O    1.682   107 C    0.959   217 H    0.958
   109   8 O    1.796 --   108 C    1.682
   110   6 C    3.942 --   112 C    1.000   111 O    0.980   218 H    0.964
                           107 C    0.962
   111   8 O    1.944 --   110 C    0.980   219 H    0.883
   112   6 C    3.992 --   110 C    1.000   220 H    0.985   222 H    0.985
                           221 H    0.981
   113   1 H    0.997 --   223 H    0.888
   114   1 H    0.999 --   224 H    0.967
   115   1 H    1.000 --   225 H    0.971
   116   1 H    1.000 --   226 H    0.968
   117   1 H    1.000 --   227 H    0.948
   118   1 H    0.999 --   228 H    0.964
   119   1 H    0.999 --   229 H    0.927
   120   1 H    0.999 --   230 H    0.927
   121   1 H    0.978 --     1 N    0.965
   122   1 H    0.976 --     1 N    0.957
   123   1 H    1.000 --     2 C    0.960
   124   1 H    0.995 --     3 C    0.879
   125   1 H    0.997 --     5 C    0.964
   126   1 H    0.916 --     6 O    0.862
   127   1 H    0.999 --     7 C    0.983
   128   1 H    0.998 --     7 C    0.981
   129   1 H    0.997 --     7 C    0.985
   130   1 H    0.974 --     8 N    0.961
   131   1 H    0.974 --     8 N    0.959
   132   1 H    0.999 --     9 C    0.962
   133   1 H    0.998 --    12 C    0.969
   134   1 H    0.998 --    12 C    0.971
   135   1 H    0.897 --    13 O    0.870
   136   1 H    0.945 --    14 N    0.891
   137   1 H    0.995 --    15 C    0.955
   138   1 H    1.000 --    16 C    0.954
   139   1 H    0.998 --    18 C    0.971
   140   1 H    0.993 --    18 C    0.949
   141   1 H    0.900 --    19 O    0.883
   142   1 H    0.979 --    20 N    0.967
   143   1 H    0.978 --    20 N    0.949
   144   1 H    0.999 --    21 C    0.959
   145   1 H    0.999 --    22 C    0.955
   146   1 H    0.998 --    24 C    0.977
   147   1 H    0.998 --    24 C    0.974
   148   1 H    1.000 --    25 C    0.970
   149   1 H    1.000 --    25 C    0.968
   150   1 H    0.980 --    29 N    0.965
   151   1 H    0.972 --    29 N    0.957
   152   1 H    0.999 --    30 C    0.952
   153   1 H    0.996 --    33 C    0.955
   154   1 H    0.997 --    33 C    0.974
   155   1 H    0.999 --    35 C    0.973
   156   1 H    1.000 --    36 C    0.973
   157   1 H    0.999 --    37 C    0.975
   158   1 H    0.999 --    38 C    0.975
   159   1 H    0.999 --    39 C    0.975
   160   1 H    0.950 --    40 N    0.920
   161   1 H    0.995 --    41 C    0.954
   162   1 H    0.997 --    44 C    0.985
   163   1 H    0.995 --    44 C    0.980
   164   1 H    0.995 --    44 C    0.981
   165   1 H    0.959 --    45 N    0.926
   166   1 H    0.994 --    46 C    0.957
   167   1 H    0.997 --    49 C    0.976
   168   1 H    0.997 --    49 C    0.970
   169   1 H    0.999 --    50 C    0.968
   170   1 H    0.999 --    50 C    0.973
   171   1 H    0.963 --    54 N    0.929
   172   1 H    0.993 --    55 C    0.956
   173   1 H    0.999 --    58 C    0.962
   174   1 H    0.999 --    59 C    0.976
   175   1 H    0.997 --    59 C    0.977
   176   1 H    0.997 --    60 C    0.984
   177   1 H    0.999 --    60 C    0.980
   178   1 H    0.997 --    60 C    0.981
   179   1 H    0.999 --    61 C    0.985
   180   1 H    0.997 --    61 C    0.985
   181   1 H    0.998 --    61 C    0.983
   182   1 H    0.951 --    62 N    0.889
   183   1 H    0.995 --    63 C    0.953
   184   1 H    0.997 --    66 C    0.973
   185   1 H    0.998 --    66 C    0.965
   186   1 H    0.997 --    69 C    0.971
   187   1 H    0.955 --    72 N    0.913
   188   1 H    0.995 --    73 C    0.957
   189   1 H    0.996 --    76 C    0.972
   190   1 H    0.995 --    76 C    0.973
   191   1 H    0.997 --    77 C    0.975
   192   1 H    0.993 --    77 C    0.961
   193   1 H    0.950 --    80 N    0.925
   194   1 H    0.949 --    80 N    0.929
   195   1 H    0.950 --    81 N    0.903
   196   1 H    0.994 --    82 C    0.957
   197   1 H    0.996 --    85 C    0.982
   198   1 H    0.995 --    85 C    0.982
   199   1 H    0.995 --    85 C    0.983
   200   1 H    0.953 --    86 N    0.908
   201   1 H    0.993 --    87 C    0.952
   202   1 H    0.995 --    90 C    0.929
   203   1 H    0.997 --    90 C    0.970
   204   1 H    0.998 --    92 C    0.972
   205   1 H    0.999 --    93 C    0.968
   206   1 H    0.998 --    94 C    0.973
   207   1 H    0.999 --    95 C    0.972
   208   1 H    0.998 --    96 C    0.974
   209   1 H    0.949 --    97 N    0.886
   210   1 H    0.995 --    98 C    0.952
   211   1 H    0.998 --   101 C    0.979
   212   1 H    0.998 --   101 C    0.969
   213   1 H    0.999 --   102 C    0.973
   214   1 H    0.999 --   102 C    0.971
   215   1 H    0.956 --   106 N    0.910
   216   1 H    0.996 --   107 C    0.958
   217   1 H    1.000 --   108 C    0.958
   218   1 H    0.997 --   110 C    0.964
   219   1 H    0.901 --   111 O    0.883
   220   1 H    0.997 --   112 C    0.985
   221   1 H    0.997 --   112 C    0.981
   222   1 H    0.996 --   112 C    0.985
   223   1 H    0.993 --   113 H    0.888
   224   1 H    0.999 --   114 H    0.967
   225   1 H    1.000 --   115 H    0.971
   226   1 H    1.000 --   116 H    0.968
   227   1 H    1.000 --   117 H    0.948
   228   1 H    0.999 --   118 H    0.964
   229   1 H    1.000 --   119 H    0.927
   230   1 H    0.999 --   120 H    0.927
   231   1 H    0.976 --    68 N    0.915
 ---------------------------------------------------------------------------

Topologies differ in total number of bonds
Writing topology from bond orders to xtbtopo.mol

molecular dipole:
                 x           y           z       tot (Debye)
 q only:     -699.934      19.340    -357.058
   full:     -698.538      21.772    -357.785    1995.619
molecular quadrupole (traceless):
                xx          xy          yy          xz          yz          zz
 q only:   -85314.526    3950.975   61643.463  -74889.668    2360.323   23671.063
  q+dip:   -84864.634    4459.668   61499.071  -74882.639    2659.082   23365.563
   full:   -84863.002    4455.602   61498.342  -74882.450    2660.694   23364.660


           -------------------------------------------------
          | TOTAL ENERGY             -362.540669040567 Eh   |
          | GRADIENT NORM               0.871685174284 Eh/α |
          | HOMO-LUMO GAP               0.002853207707 eV   |
           -------------------------------------------------
########################################################################
[WARNING] Runtime exception occurred
-2- restart_readRestart: Dimension missmatch in restart file.
-1- restart_readRestart: Number of electron missmatch in restart file.
########################################################################

------------------------------------------------------------------------
 * finished run on 2025/05/05 at 17:13:11.655     
------------------------------------------------------------------------
 total:
 * wall-time:     0 d,  0 h,  0 min,  1.195 sec
 *  cpu-time:     0 d,  0 h,  0 min, 37.550 sec
 * ratio c/w:    31.420 speedup
 SCF:
 * wall-time:     0 d,  0 h,  0 min,  1.172 sec
 *  cpu-time:     0 d,  0 h,  0 min, 36.956 sec
 * ratio c/w:    31.524 speedup

