      -----------------------------------------------------------      
     |                   =====================                   |     
     |                           x T B                           |     
     |                   =====================                   |     
     |                         S. Grimme                         |     
     |          Mulliken Center for Theoretical Chemistry        |     
     |                    University of Bonn                     |     
      -----------------------------------------------------------      

   * xtb version 6.7.1 (edcfbbe) compiled by 'conda@afd1a870197c' on 2025-04-11

   xtb is free software: you can redistribute it and/or modify it under
   the terms of the GNU Lesser General Public License as published by
   the Free Software Foundation, either version 3 of the License, or
   (at your option) any later version.
   
   xtb is distributed in the hope that it will be useful,
   but WITHOUT ANY WARRANTY; without even the implied warranty of
   MERCHANTABILITY or FITNESS FOR A PARTICULAR PURPOSE.  See the
   GNU Lesser General Public License for more details.
   
   Cite this work as:
   * C. Bannwarth, E. Caldeweyher, S. Ehlert, A. Hansen, P. Pracht,
     J. Seibert, S. Spicher, S. Grimme, WIREs Comput. Mol. Sci., 2020, 11,
     e01493. DOI: 10.1002/wcms.1493
   
   for GFN2-xTB:
   * C. Bannwarth, S. Ehlert and S. Grimme., J. Chem. Theory Comput., 2019,
     15, 1652-1671. DOI: 10.1021/acs.jctc.8b01176
   for GFN1-xTB:
   * S. Grimme, C. Bannwarth, P. Shushkov, J. Chem. Theory Comput., 2017,
     13, 1989-2009. DOI: 10.1021/acs.jctc.7b00118
   for GFN0-xTB:
   * P. Pracht, E. Caldeweyher, S. Ehlert, S. Grimme, ChemRxiv, 2019, preprint.
     DOI: 10.26434/chemrxiv.8326202.v1
   for GFN-FF:
   * S. Spicher and S. Grimme, Angew. Chem. Int. Ed., 2020, 59, 15665-15673.
     DOI: 10.1002/anie.202004239
   
   for ALPB and GBSA implicit solvation:
   * S. Ehlert, M. Stahn, S. Spicher, S. Grimme, J. Chem. Theory Comput.,
     2021, 17, 4250-4261. DOI: 10.1021/acs.jctc.1c00471
   
   for ddCOSMO and CPCM-X implicit solvation:
   * M. Stahn, S. Ehlert, S. Grimme, J. Phys. Chem. A,
     2023, XX, XXXX-XXXX. DOI: 10.1021/acs.jpca.3c04382
   
   for DFT-D4:
   * E. Caldeweyher, C. Bannwarth and S. Grimme, J. Chem. Phys., 2017,
     147, 034112. DOI: 10.1063/1.4993215
   * E. Caldeweyher, S. Ehlert, A. Hansen, H. Neugebauer, S. Spicher,
     C. Bannwarth and S. Grimme, J. Chem. Phys., 2019, 150, 154122.
     DOI: 10.1063/1.5090222
   * E. Caldeweyher, J.-M. Mewes, S. Ehlert and S. Grimme, Phys. Chem. Chem. Phys.
     2020, 22, 8499-8512. DOI: 10.1039/D0CP00502A
   
   for sTDA-xTB:
   * S. Grimme and C. Bannwarth, J. Chem. Phys., 2016, 145, 054103.
     DOI: 10.1063/1.4959605
   
   in the mass-spec context:
   * V. Asgeirsson, C. Bauer and S. Grimme, Chem. Sci., 2017, 8, 4879.
     DOI: 10.1039/c7sc00601b
   * J. Koopman and S. Grimme, ACS Omega 2019, 4, 12, 15120-15133.
     DOI: 10.1021/acsomega.9b02011
   
   for metadynamics refer to:
   * S. Grimme, J. Chem. Theory Comput., 2019, 155, 2847-2862
     DOI: 10.1021/acs.jctc.9b00143
   
   for SPH calculations refer to:
   * S. Spicher and S. Grimme, J. Chem. Theory Comput., 2021, 17, 1701-1714
     DOI: 10.1021/acs.jctc.0c01306
   
   for ONIOM refer to:
   * C. Plett, A. Katbashev, S. Ehlert, S. Grimme, M. Bursch,
     Phys. Chem. Chem. Phys., 2023, 25, 17860-17868. DOI: 10.1039/D3CP02178E
   
   for DIPRO refer to:
   * J. Kohn, N. Gildemeister, S. Grimme, D. Fazzi, A. Hansen,
     J. Chem. Phys., 2023, just accepted.
   
   for PTB refer to:
   * S. Grimme, M. Mueller, A. Hansen, J. Chem. Phys., 2023, 158, 124111.
     DOI: 10.1063/5.0137838
   
   with help from (in alphabetical order)
   P. Atkinson, C. Bannwarth, F. Bohle, G. Brandenburg, E. Caldeweyher
   M. Checinski, S. Dohm, S. Ehlert, S. Ehrlich, I. Gerasimov, C. Hölzer
   A. Katbashev, J. Kohn, J. Koopman, C. Lavigne, S. Lehtola, F. März, M. Müller,
   F. Musil, H. Neugebauer, J. Pisarek, C. Plett, P. Pracht, F. Pultar,
   J. Seibert, P. Shushkov, S. Spicher, M. Stahn, M. Steiner, T. Strunk,
   J. Stückrath, T. Rose, and J. Unsleber
   
 * started run on 2025/05/05 at 16:39:02.633     
   ID    Z sym.   atoms
    1    7 N      1, 5, 13, 19, 28, 36, 44, 52, 60, 66, 73, 79, 82, 83, 91,
                  92, 99, 111, 118
    2    6 C      2, 3, 6, 7, 9-12, 14-18, 20, 21, 23-25, 29, 30, 32, 33, 35,
                  37, 38, 40-43, 45, 46, 48-51, 53, 54, 56-59, 61-65, 67, 68,
                  70-72, 74, 75, 77, 78, 80, 81, 84, 85, 87-90, 93, 94, 96,
                  98, 100, 101, 103-109, 112, 113, 115-117, 119, 120, 122
    3    8 O      4, 8, 22, 26, 27, 31, 39, 47, 55, 69, 76, 86, 95, 97, 102,
                  110, 114, 121
    4   16 S      34
    5    1 H      123-292

           -------------------------------------------------
          |                Calculation Setup                |
           -------------------------------------------------

          program call               : xtb /tmp/tmpkl5hag64/HID/input.xyz --alpb ether --chrg 1 --input /tmp/tmpkl5hag64/HID/constraints.inp --gfn 2
          hostname                   : fedora
          coordinate file            : /tmp/tmpkl5hag64/HID/input.xyz
          omp threads                :                    32


molecular fragmentation (1/2 indicates fragments):
111111111111111111111111111111111111111111122222222222222222222222222222
222222222222222222222222222222222222222222222222222222222222222222222222
211111111111111111111111111111111111111112222222222222222222222222222222
222222222222222222222222222222222222222222222222222222222222222222222222
2222
# atoms in fragment 1/2:    83   209
 fragment masses (1/2) :      616.73     1149.70
CMA distance (Bohr)    :  12.612
constraining FC (au)   :  0.0500

           -------------------------------------------------
          |                 G F N 2 - x T B                 |
           -------------------------------------------------

        Reference                      10.1021/acs.jctc.8b01176
      * Hamiltonian:
        H0-scaling (s, p, d)           1.850000    2.230000    2.230000
        zeta-weighting                 0.500000
      * Dispersion:
        s8                             2.700000
        a1                             0.520000
        a2                             5.000000
        s9                             5.000000
      * Repulsion:
        kExp                           1.500000    1.000000
        rExp                           1.000000
      * Coulomb:
        alpha                          2.000000
        third order                    shell-resolved
        anisotropic                    true
        a3                             3.000000
        a5                             4.000000
        cn-shift                       1.200000
        cn-exp                         4.000000
        max-rad                        5.000000

      * Solvation model:               ALPB
        Solvent                        ether
        Parameter file                 internal GFN2-xTB/ALPB
        Dielectric constant                4.3300E+00
        Reference state                gsolv [1 M gas/solution]
        Free energy shift                  4.9534E-03 Eh       3.1083E+00 kcal/mol
        Temperature                        2.9815E+02 K
        Density                            7.1300E-01 kg/L
        Solvent mass                       7.4120E+01 g/mol
        Interaction kernel             P16
        Born radius scaling (c1)           1.5847E+00
        Born radii integrator          GBOBC
        Born offset                        0.0000E+00 a0       0.0000E+00 AA
        H-bond correction              true
        Ion screening                  false
        Surface tension                    1.0000E-05 Eh       1.5569E+01 dyn/cm
        Grid points                               230 per atom

          ...................................................
          :                      SETUP                      :
          :.................................................:
          :  # basis functions                 664          :
          :  # atomic orbitals                 663          :
          :  # shells                          415          :
          :  # electrons                       714          :
          :  max. iterations                   250          :
          :  Hamiltonian                  GFN2-xTB          :
          :  restarted?                      false          :
          :  GBSA solvation                   true          :
          :  PC potential                    false          :
          :  electronic temp.          300.0000000     K    :
          :  accuracy                    1.0000000          :
          :  -> integral cutoff          0.2500000E+02      :
          :  -> integral neglect         0.1000000E-07      :
          :  -> SCF convergence          0.1000000E-05 Eh   :
          :  -> wf. convergence          0.1000000E-03 e    :
          :  Broyden damping             0.4000000          :
          :  net charge                          1          :
          :  unpaired electrons                  0          :
          ...................................................

 iter      E             dE          RMSdq      gap      omega  full diag
   1   -401.3829051 -0.401383E+03  0.426E+00    0.10       0.0  T
   2   -399.6059490  0.177696E+01  0.329E+00    0.03       1.0  T
   3   -400.8018386 -0.119589E+01  0.289E+00    0.04       1.0  T
   4   -402.8896496 -0.208781E+01  0.176E+00    0.09       1.0  T
   5   -402.9981317 -0.108482E+00  0.149E+00    0.00       1.0  T
   6   -403.0121904 -0.140587E-01  0.133E+00    0.19       1.0  T
   7   -402.3504288  0.661762E+00  0.168E+00    0.00       1.0  T
   8   -403.2265433 -0.876114E+00  0.885E-01    0.14       1.0  T
   9   -402.9378276  0.288716E+00  0.118E+00    0.23       1.0  T
  10   -403.1899115 -0.252084E+00  0.899E-01    0.16       1.0  T
  11   -403.1878963  0.201514E-02  0.886E-01    0.04       1.0  T
  12   -403.3039701 -0.116074E+00  0.752E-01    0.01       1.0  T
  13   -403.0252455  0.278725E+00  0.970E-01    0.02       1.0  T
  14   -403.4007757 -0.375530E+00  0.561E-01    0.03       1.0  T
  15   -403.2625931  0.138183E+00  0.829E-01    0.04       1.0  T
  16   -403.3482664 -0.856733E-01  0.619E-01    0.06       1.0  T
  17   -403.4021817 -0.539153E-01  0.512E-01    0.01       1.0  T
  18   -403.4198182 -0.176365E-01  0.470E-01    0.01       1.0  T
  19   -403.4318032 -0.119850E-01  0.458E-01    0.04       1.0  T
  20   -403.4206024  0.112008E-01  0.468E-01    0.02       1.0  T
  21   -403.4322094 -0.116070E-01  0.445E-01    0.03       1.0  T
  22   -403.3660485  0.661609E-01  0.555E-01    0.02       1.0  T
  23   -403.4870368 -0.120988E+00  0.292E-01    0.02       1.0  T
  24   -403.4975110 -0.104742E-01  0.254E-01    0.01       1.0  T
  25   -403.4899609  0.755009E-02  0.280E-01    0.02       1.0  T
  26   -403.4873622  0.259874E-02  0.287E-01    0.00       1.0  T
  27   -403.5117208 -0.243586E-01  0.180E-01    0.00       1.0  T
  28   -403.5084661  0.325471E-02  0.199E-01    0.02       1.0  T
  29   -403.5242589 -0.157928E-01  0.910E-02    0.00       1.0  T
  30   -403.5267371 -0.247820E-02  0.521E-02    0.00       1.0  T
  31   -403.5265403  0.196731E-03  0.578E-02    0.01       1.0  T
  32   -403.5279189 -0.137857E-02  0.194E-02    0.01       1.0  T
  33   -403.5276425  0.276443E-03  0.302E-02    0.00       1.0  T
  34   -403.5280704 -0.427958E-03  0.910E-03    0.00       1.0  T
  35   -403.5280757 -0.523478E-05  0.773E-03    0.01       1.0  T
  36   -403.5280961 -0.204685E-04  0.493E-03    0.01       1.2  T
  37   -403.5281060 -0.986494E-05  0.141E-03    0.01       4.2  T
  38   -403.5281041  0.189481E-05  0.235E-03    0.01       2.5  T
  39   -403.5281064 -0.227617E-05  0.881E-04    0.01       6.6  T
  40   -403.5281066 -0.200508E-06  0.562E-04    0.01      10.4  T
  41   -403.5281067 -0.151491E-06  0.913E-05    0.01      64.1  T

   *** convergence criteria satisfied after 41 iterations ***

         #    Occupation            Energy/Eh            Energy/eV
      -------------------------------------------------------------
         1        2.0000           -0.7730836             -21.0367
       ...           ...                  ...                  ...
       351        1.9481           -0.3850523             -10.4778
       352        1.9453           -0.3850010             -10.4764
       353        1.9213           -0.3846435             -10.4667
       354        1.9148           -0.3845648             -10.4645
       355        1.8443           -0.3839566             -10.4480
       356        1.5613           -0.3828138             -10.4169
       357        1.0614           -0.3817247             -10.3873 (HOMO)
       358        0.9599           -0.3815315             -10.3820 (LUMO)
       359        0.8531           -0.3813267             -10.3764
       360                         -0.3401834              -9.2569
       361                         -0.3002714              -8.1708
       362                         -0.2919671              -7.9448
       ...                                ...                  ...
       663                          1.4254534              38.7886
      -------------------------------------------------------------
                  HL-Gap            0.0001931 Eh            0.0053 eV
             Fermi-level           -0.3816079 Eh          -10.3841 eV

 SCC (total)                   0 d,  0 h,  0 min,  2.355 sec
 SCC setup                      ...        0 min,  0.005 sec (  0.233%)
 Dispersion                     ...        0 min,  0.014 sec (  0.593%)
 classical contributions        ...        0 min,  0.001 sec (  0.031%)
 integral evaluation            ...        0 min,  0.021 sec (  0.877%)
 iterations                     ...        0 min,  2.198 sec ( 93.329%)
 molecular gradient             ...        0 min,  0.113 sec (  4.793%)
 printout                       ...        0 min,  0.003 sec (  0.142%)

         :::::::::::::::::::::::::::::::::::::::::::::::::::::
         ::                     SUMMARY                     ::
         :::::::::::::::::::::::::::::::::::::::::::::::::::::
         :: total energy            -396.208568241677 Eh    ::
         :: total w/o Gsasa/hb      -396.108441592860 Eh    ::
         :: gradient norm              1.401368465931 Eh/a0 ::
         :: HOMO-LUMO gap              0.005255020796 eV    ::
         ::.................................................::
         :: SCC energy              -403.491925953067 Eh    ::
         :: -> isotropic ES            0.872391951308 Eh    ::
         :: -> anisotropic ES          0.104805662326 Eh    ::
         :: -> anisotropic XC          0.280132282413 Eh    ::
         :: -> dispersion             -0.360351328649 Eh    ::
         :: -> Gsolv                  -0.235587137608 Eh    ::
         ::    -> Gelec               -0.135460488791 Eh    ::
         ::    -> Gsasa               -0.087243167231 Eh    ::
         ::    -> Ghb                 -0.017836919163 Eh    ::
         ::    -> Gshift               0.004953437577 Eh    ::
         :: repulsion energy           7.283357711390 Eh    ::
         :: add. restraining           0.000000000000 Eh    ::
         :: total charge               1.000000000688 e     ::
         :::::::::::::::::::::::::::::::::::::::::::::::::::::

           -------------------------------------------------
          |                Property Printout                |
           -------------------------------------------------

    * Orbital Energies and Occupations

         #    Occupation            Energy/Eh            Energy/eV
      -------------------------------------------------------------
         1        2.0000           -0.7730836             -21.0367
       ...           ...                  ...                  ...
       345        2.0000           -0.3982260             -10.8363
       346        2.0000           -0.3962873             -10.7835
       347        2.0000           -0.3962201             -10.7817
       348        2.0000           -0.3917072             -10.6589
       349        1.9998           -0.3906018             -10.6288
       350        1.9907           -0.3867076             -10.5228
       351        1.9481           -0.3850523             -10.4778
       352        1.9453           -0.3850010             -10.4764
       353        1.9213           -0.3846435             -10.4667
       354        1.9148           -0.3845648             -10.4645
       355        1.8443           -0.3839566             -10.4480
       356        1.5613           -0.3828138             -10.4169
       357        1.0614           -0.3817247             -10.3873 (HOMO)
       358        0.9599           -0.3815315             -10.3820 (LUMO)
       359        0.8531           -0.3813267             -10.3764
       360                         -0.3401834              -9.2569
       361                         -0.3002714              -8.1708
       362                         -0.2919671              -7.9448
       363                         -0.2886064              -7.8534
       364                         -0.2587006              -7.0396
       365                         -0.2565561              -6.9812
       366                         -0.2565128              -6.9801
       367                         -0.2419831              -6.5847
       368                         -0.2412178              -6.5639
       ...                                ...                  ...
       663                          1.4254534              38.7886
      -------------------------------------------------------------
                  HL-Gap            0.0001931 Eh            0.0053 eV
             Fermi-level           -0.3816079 Eh          -10.3841 eV

     #   Z          covCN         q      C6AA      α(0)
     1   7 N        2.628    -0.351    29.034     8.003
     2   6 C        3.740    -0.021    21.020     6.542
     3   6 C        2.755     0.274    22.367     7.745
     4   8 O        0.859    -0.488    23.522     6.503
     5   7 N        2.689    -0.160    24.461     7.345
     6   6 C        3.800     0.029    20.081     6.380
     7   6 C        2.752     0.271    22.420     7.753
     8   8 O        0.858    -0.486    23.470     6.495
     9   6 C        3.812    -0.079    21.997     6.676
    10   6 C        3.043     0.008    27.803     8.648
    11   6 C        3.023     0.018    27.586     8.615
    12   6 C        3.105    -0.024    28.461     8.741
    13   7 N        1.911    -0.270    27.867     7.827
    14   6 C        3.067     0.064    26.493     8.440
    15   6 C        2.909    -0.031    28.779     8.797
    16   6 C        2.907    -0.032    28.788     8.798
    17   6 C        2.914    -0.040    28.997     8.830
    18   6 C        2.921    -0.036    28.887     8.814
    19   7 N        2.695    -0.151    24.258     7.315
    20   6 C        3.797     0.021    20.225     6.404
    21   6 C        2.764     0.273    22.388     7.749
    22   8 O        0.858    -0.484    23.427     6.489
    23   6 C        3.811    -0.063    21.696     6.630
    24   6 C        3.807    -0.076    21.954     6.670
    25   6 C        2.688     0.381    20.554     7.420
    26   8 O        0.857    -0.518    24.184     6.593
    27   8 O        0.857    -0.528    24.409     6.624
    28   7 N        2.688    -0.151    24.258     7.315
    29   6 C        3.798     0.013    20.360     6.425
    30   6 C        2.753     0.266    22.517     7.770
    31   8 O        0.858    -0.495    23.666     6.522
    32   6 C        3.814    -0.077    21.965     6.671
    33   6 C        3.795    -0.032    21.150     6.549
    34  16 S        1.951    -0.129   146.449    20.368
    35   6 C        3.751    -0.073    21.951     6.682
    36   7 N        2.691    -0.160    24.471     7.347
    37   6 C        3.793     0.025    20.161     6.394
    38   6 C        2.768     0.191    23.918     8.010
    39   8 O        0.856    -0.337    20.453     6.063
    40   6 C        3.816    -0.078    21.977     6.672
    41   6 C        3.852    -0.014    20.785     6.484
    42   6 C        3.760    -0.115    22.740     6.798
    43   6 C        3.763    -0.121    22.865     6.816
    44   7 N        2.627    -0.345    28.884     7.982
    45   6 C        3.782     0.026    20.156     6.395
    46   6 C        2.762     0.195    23.840     7.996
    47   8 O        0.856    -0.362    20.937     6.135
    48   6 C        3.850    -0.019    20.875     6.499
    49   6 C        3.807    -0.069    21.813     6.649
    50   6 C        3.759    -0.113    22.702     6.793
    51   6 C        3.757    -0.107    22.602     6.778
    52   7 N        2.638    -0.334    28.597     7.942
    53   6 C        3.788     0.041    19.891     6.352
    54   6 C        2.763     0.268    22.471     7.763
    55   8 O        0.859    -0.478    23.299     6.472
    56   6 C        3.811    -0.070    21.826     6.650
    57   6 C        3.040     0.004    27.890     8.662
    58   6 C        3.022     0.022    27.494     8.601
    59   6 C        3.108    -0.028    28.551     8.754
    60   7 N        1.914    -0.276    28.003     7.846
    61   6 C        3.068     0.066    26.450     8.433
    62   6 C        2.911    -0.028    28.701     8.785
    63   6 C        2.909    -0.026    28.658     8.778
    64   6 C        2.916    -0.041    29.023     8.834
    65   6 C        2.923    -0.036    28.899     8.816
    66   7 N        2.694    -0.159    24.448     7.344
    67   6 C        3.799     0.014    20.351     6.423
    68   6 C        2.769     0.269    22.461     7.762
    69   8 O        0.859    -0.512    24.058     6.576
    70   6 C        3.852    -0.019    20.883     6.500
    71   6 C        3.758    -0.124    22.924     6.826
    72   6 C        3.756    -0.126    22.970     6.834
    73   7 N        2.688    -0.160    24.457     7.345
    74   6 C        3.804     0.020    20.236     6.404
    75   6 C        2.755     0.268    22.482     7.764
    76   8 O        0.858    -0.495    23.666     6.522
    77   6 C        3.809    -0.080    22.022     6.680
    78   6 C        3.084     0.030    27.237     8.555
    79   7 N        2.848    -0.128    23.768     7.241
    80   6 C        3.056     0.010    27.730     8.636
    81   6 C        2.105     0.047    29.667     8.801
    82   7 N        1.979    -0.222    26.643     7.655
    83   7 N        2.690    -0.169    24.650     7.374
    84   6 C        3.806     0.018    20.276     6.410
    85   6 C        2.758     0.272    22.399     7.750
    86   8 O        0.858    -0.483    23.414     6.488
    87   6 C        3.809    -0.074    21.914     6.664
    88   6 C        3.804    -0.089    22.188     6.706
    89   6 C        3.803    -0.089    22.199     6.708
    90   6 C        3.733    -0.050    21.564     6.628
    91   7 N        3.486    -0.158    24.397     7.336
    92   7 N        2.705    -0.156    24.364     7.331
    93   6 C        3.790     0.015    20.339     6.423
    94   6 C        2.760     0.190    23.938     8.012
    95   8 O        0.856    -0.356    20.829     6.119
    96   6 C        3.735     0.105    18.934     6.210
    97   8 O        1.652    -0.471    22.276     6.371
    98   6 C        3.759    -0.146    23.360     6.891
    99   7 N        2.632    -0.339    28.724     7.960
   100   6 C        3.790     0.035    19.998     6.369
   101   6 C        2.756     0.266    22.503     7.768
   102   8 O        0.858    -0.485    23.463     6.494
   103   6 C        3.815    -0.077    21.959     6.670
   104   6 C        2.962    -0.007    28.184     8.708
   105   6 C        2.928    -0.047    29.177     8.858
   106   6 C        2.926    -0.048    29.183     8.859
   107   6 C        2.918    -0.080    29.991     8.981
   108   6 C        2.917    -0.062    29.555     8.915
   109   6 C        2.848     0.141    24.925     8.182
   110   8 O        1.661    -0.466    22.161     6.355
   111   7 N        2.691    -0.172    24.712     7.383
   112   6 C        3.797     0.013    20.360     6.425
   113   6 C        2.759     0.269    22.465     7.762
   114   8 O        0.859    -0.493    23.625     6.517
   115   6 C        3.853    -0.015    20.811     6.488
   116   6 C        3.761    -0.119    22.828     6.811
   117   6 C        3.761    -0.119    22.821     6.810
   118   7 N        2.692    -0.158    24.416     7.339
   119   6 C        3.796     0.031    20.051     6.376
   120   6 C        2.768     0.169    24.357     8.083
   121   8 O        0.856    -0.373    21.145     6.165
   122   6 C        3.762    -0.117    22.787     6.805
   123   1 H        0.980     0.001     3.035     2.722
   124   1 H        0.980     0.001     3.040     2.724
   125   1 H        0.980     0.009     2.891     2.657
   126   1 H        0.980    -0.014     3.309     2.843
   127   1 H        0.980    -0.018     3.384     2.875
   128   1 H        0.980     0.041     2.425     2.433
   129   1 H        0.980     0.011     2.860     2.643
   130   1 H        0.980    -0.013     3.289     2.834
   131   1 H        0.980     0.019     2.737     2.585
   132   1 H        0.980    -0.005     3.131     2.765
   133   1 H        0.980     0.001     3.034     2.722
   134   1 H        0.980    -0.000     3.051     2.730
   135   1 H        0.980     0.004     2.982     2.698
   136   1 H        0.980     0.003     3.001     2.707
   137   1 H        0.980    -0.011     3.254     2.819
   138   1 H        0.980    -0.006     3.146     2.772
   139   1 H        0.980     0.003     2.994     2.704
   140   1 H        0.980     0.004     2.988     2.701
   141   1 H        0.980    -0.012     3.267     2.825
   142   1 H        0.980     0.006     2.945     2.682
   143   1 H        0.980     0.010     2.880     2.652
   144   1 H        0.980     0.001     3.031     2.720
   145   1 H        0.980    -0.006     3.148     2.773
   146   1 H        0.860     0.179     1.218     1.729
   147   1 H        0.860     0.163     1.316     1.797
   148   1 H        0.927     0.046     2.370     2.408
   149   1 H        0.927     0.080     1.982     2.202
   150   1 H        0.861     0.203     1.090     1.635
   151   1 H        0.927     0.079     1.992     2.207
   152   1 H        0.927     0.090     1.880     2.144
   153   1 H        0.927     0.072     2.066     2.248
   154   1 H        0.929     0.043     2.415     2.430
   155   1 H        0.929     0.053     2.279     2.360
   156   1 H        0.929     0.065     2.137     2.286
   157   1 H        0.929     0.052     2.295     2.369
   158   1 H        0.929     0.057     2.238     2.339
   159   1 H        0.861     0.227     0.978     1.549
   160   1 H        0.927     0.082     1.956     2.187
   161   1 H        0.927     0.064     2.154     2.295
   162   1 H        0.927     0.074     2.045     2.236
   163   1 H        0.927     0.076     2.022     2.224
   164   1 H        0.927     0.072     2.067     2.248
   165   1 H        0.861     0.209     1.062     1.614
   166   1 H        0.927     0.101     1.774     2.083
   167   1 H        0.927     0.074     2.046     2.237
   168   1 H        0.927     0.067     2.113     2.273
   169   1 H        0.927     0.081     1.964     2.191
   170   1 H        0.927     0.074     2.037     2.232
   171   1 H        0.927     0.077     2.014     2.219
   172   1 H        0.927     0.069     2.092     2.262
   173   1 H        0.927     0.066     2.128     2.281
   174   1 H        0.861     0.235     0.943     1.521
   175   1 H        0.927     0.091     1.868     2.137
   176   1 H        0.929     0.071     2.076     2.253
   177   1 H        0.927     0.062     2.173     2.305
   178   1 H        0.927     0.067     2.117     2.275
   179   1 H        0.927     0.041     2.429     2.437
   180   1 H        0.927     0.042     2.427     2.436
   181   1 H        0.927     0.038     2.474     2.459
   182   1 H        0.927     0.042     2.421     2.433
   183   1 H        0.927     0.045     2.382     2.414
   184   1 H        0.927     0.045     2.379     2.412
   185   1 H        0.926     0.040     2.452     2.449
   186   1 H        0.860     0.168     1.288     1.778
   187   1 H        0.860     0.174     1.248     1.750
   188   1 H        0.926     0.060     2.194     2.316
   189   1 H        0.929     0.069     2.101     2.266
   190   1 H        0.926     0.050     2.317     2.380
   191   1 H        0.927     0.040     2.445     2.445
   192   1 H        0.927     0.053     2.284     2.363
   193   1 H        0.927     0.044     2.400     2.423
   194   1 H        0.927     0.050     2.319     2.381
   195   1 H        0.927     0.047     2.356     2.400
   196   1 H        0.927     0.036     2.502     2.474
   197   1 H        0.927     0.041     2.433     2.439
   198   1 H        0.926     0.036     2.503     2.474
   199   1 H        0.860     0.164     1.312     1.795
   200   1 H        0.860     0.174     1.247     1.749
   201   1 H        0.926     0.022     2.703     2.571
   202   1 H        0.927     0.085     1.927     2.170
   203   1 H        0.927     0.064     2.147     2.292
   204   1 H        0.929     0.043     2.413     2.429
   205   1 H        0.929     0.050     2.321     2.382
   206   1 H        0.929     0.071     2.069     2.249
   207   1 H        0.929     0.056     2.245     2.343
   208   1 H        0.929     0.059     2.212     2.326
   209   1 H        0.861     0.200     1.105     1.647
   210   1 H        0.927     0.091     1.868     2.137
   211   1 H        0.927     0.043     2.404     2.425
   212   1 H        0.927     0.051     2.301     2.372
   213   1 H        0.927     0.043     2.403     2.424
   214   1 H        0.927     0.054     2.269     2.355
   215   1 H        0.927     0.052     2.295     2.369
   216   1 H        0.926     0.053     2.277     2.360
   217   1 H        0.927     0.043     2.414     2.430
   218   1 H        0.861     0.234     0.950     1.526
   219   1 H        0.927     0.097     1.815     2.107
   220   1 H        0.927     0.091     1.869     2.138
   221   1 H        0.927     0.089     1.891     2.151
   222   1 H        0.929     0.070     2.082     2.256
   223   1 H        0.861     0.232     0.954     1.530
   224   1 H        0.927     0.074     2.039     2.233
   225   1 H        0.927     0.061     2.188     2.313
   226   1 H        0.927     0.070     2.091     2.261
   227   1 H        0.927     0.056     2.246     2.344
   228   1 H        0.927     0.065     2.139     2.287
   229   1 H        0.927     0.096     1.825     2.113
   230   1 H        0.927     0.062     2.181     2.309
   231   1 H        0.926     0.116     1.645     2.006
   232   1 H        0.927     0.120     1.614     1.987
   233   1 H        0.861     0.218     1.019     1.581
   234   1 H        0.927     0.097     1.810     2.104
   235   1 H        0.929     0.086     1.919     2.166
   236   1 H        0.927     0.081     1.967     2.193
   237   1 H        0.804     0.332     0.632     1.249
   238   1 H        0.927     0.054     2.264     2.353
   239   1 H        0.927     0.063     2.168     2.302
   240   1 H        0.927     0.079     1.993     2.207
   241   1 H        0.860     0.165     1.304     1.789
   242   1 H        0.860     0.173     1.256     1.755
   243   1 H        0.927     0.036     2.509     2.477
   244   1 H        0.927     0.066     2.128     2.281
   245   1 H        0.927     0.063     2.163     2.300
   246   1 H        0.929     0.049     2.330     2.387
   247   1 H        0.929     0.052     2.296     2.369
   248   1 H        0.929     0.047     2.360     2.402
   249   1 H        0.929     0.059     2.207     2.323
   250   1 H        1.532     0.360     0.553     1.161
   251   1 H        0.861     0.220     1.011     1.575
   252   1 H        0.927     0.075     2.031     2.229
   253   1 H        0.927     0.049     2.335     2.389
   254   1 H        0.927     0.048     2.339     2.391
   255   1 H        0.927     0.036     2.509     2.477
   256   1 H        0.927     0.054     2.270     2.356
   257   1 H        0.927     0.050     2.315     2.380
   258   1 H        0.927     0.051     2.303     2.373
   259   1 H        0.927     0.042     2.425     2.435
   260   1 H        0.861     0.215     1.032     1.591
   261   1 H        0.927     0.107     1.720     2.051
   262   1 H        0.929     0.103     1.759     2.074
   263   1 H        0.927     0.061     2.190     2.314
   264   1 H        0.927     0.082     1.963     2.191
   265   1 H        0.927     0.061     2.192     2.315
   266   1 H        0.980     0.001     3.023     2.717
   267   1 H        0.980    -0.000     3.054     2.731
   268   1 H        0.980    -0.009     3.201     2.796
   269   1 H        0.980     0.013     2.826     2.627
   270   1 H        0.980     0.021     2.717     2.576
   271   1 H        0.980    -0.015     3.323     2.849
   272   1 H        0.980    -0.009     3.215     2.802
   273   1 H        0.980     0.011     2.866     2.645
   274   1 H        0.980    -0.016     3.345     2.858
   275   1 H        0.980     0.005     2.962     2.689
   276   1 H        0.980    -0.002     3.077     2.741
   277   1 H        0.980    -0.001     3.067     2.737
   278   1 H        0.980    -0.004     3.113     2.757
   279   1 H        0.980    -0.001     3.058     2.733
   280   1 H        0.980     0.010     2.876     2.650
   281   1 H        0.980     0.006     2.953     2.685
   282   1 H        0.980    -0.000     3.050     2.729
   283   1 H        0.980    -0.006     3.148     2.773
   284   1 H        0.980     0.015     2.810     2.619
   285   1 H        0.980    -0.010     3.232     2.809
   286   1 H        0.980    -0.020     3.414     2.887
   287   1 H        0.980    -0.013     3.285     2.832
   288   1 H        0.980     0.028     2.606     2.522
   289   1 H        0.860     0.281     0.772     1.376
   290   1 H        0.860     0.304     0.701     1.312
   291   1 H        0.860     0.301     0.711     1.321
   292   1 H        1.582     0.264     0.821     1.415

 Mol. C6AA /au·bohr⁶  :     726350.913273
 Mol. C8AA /au·bohr⁸  :   15875687.053228
 Mol. α(0) /au        :       1297.419662


Wiberg/Mayer (AO) data.
largest (>0.10) Wiberg bond orders for each atom

 ---------------------------------------------------------------------------
     #   Z sym  total        # sym  WBO       # sym  WBO       # sym  WBO
 ---------------------------------------------------------------------------
     1   7 N    2.968 --     2 C    1.016   147 H    0.959   146 H    0.953
     2   6 C    3.976 --     1 N    1.016   149 H    0.972     3 C    0.958
                           148 H    0.956
     3   6 C    3.946 --     4 O    1.635     5 N    1.301     2 C    0.958
     4   8 O    1.939 --     3 C    1.635     5 N    0.195
     5   7 N    3.471 --     3 C    1.301     6 C    0.980   150 H    0.928
                             4 O    0.195
     6   6 C    3.947 --     5 N    0.980     9 C    0.957   151 H    0.950
                             7 C    0.929
     7   6 C    3.950 --     8 O    1.633    19 N    1.313     6 C    0.929
     8   8 O    1.942 --     7 C    1.633    19 N    0.198
     9   6 C    3.979 --    10 C    1.026   153 H    0.970     6 C    0.957
                           152 H    0.943
    10   6 C    3.696 --    11 C    1.417    12 C    1.151     9 C    1.026
    11   6 C    3.959 --    10 C    1.417    13 N    1.390   154 H    0.970
    12   6 C    3.956 --    15 C    1.381    14 C    1.237    10 C    1.151
    13   7 N    2.709 --    11 C    1.390    14 C    1.213
    14   6 C    3.963 --    16 C    1.342    12 C    1.237    13 N    1.213
    15   6 C    3.886 --    17 C    1.395    12 C    1.381   155 H    0.968
    16   6 C    3.881 --    18 C    1.424    14 C    1.342   156 H    0.968
    17   6 C    3.927 --    18 C    1.422    15 C    1.395   157 H    0.973
    18   6 C    3.941 --    16 C    1.424    17 C    1.422   158 H    0.966
    19   7 N    3.484 --     7 C    1.313    20 C    0.982   159 H    0.912
                             8 O    0.198
    20   6 C    3.955 --    19 N    0.982    23 C    0.961   160 H    0.954
                            21 C    0.942
    21   6 C    3.947 --    22 O    1.605    28 N    1.321    20 C    0.942
    22   8 O    1.944 --    21 C    1.605    28 N    0.193
    23   6 C    3.980 --    24 C    1.005   161 H    0.974   162 H    0.971
                            20 C    0.961
    24   6 C    3.834 --    23 C    1.005   163 H    0.965   164 H    0.953
                            25 C    0.860
    25   6 C    3.901 --    26 O    1.521    27 O    1.496    24 C    0.860
    26   8 O    1.785 --    25 C    1.521    27 O    0.225
    27   8 O    1.760 --    25 C    1.496    26 O    0.225
    28   7 N    3.488 --    21 C    1.321    29 C    0.980   165 H    0.926
                            22 O    0.193
    29   6 C    3.955 --    28 N    0.980    32 C    0.969   166 H    0.943
                            30 C    0.937
    30   6 C    3.953 --    31 O    1.625    36 N    1.321    29 C    0.937
    31   8 O    1.941 --    30 C    1.625    36 N    0.203
    32   6 C    3.982 --    33 C    1.000    29 C    0.969   167 H    0.966
                           168 H    0.964
    33   6 C    3.969 --    32 C    1.000    34 S    0.990   170 H    0.968
                           169 H    0.955
    34  16 S    2.081 --    35 C    1.014    33 C    0.990
    35   6 C    3.969 --    34 S    1.014   172 H    0.979   171 H    0.977
                           173 H    0.969
    36   7 N    3.486 --    30 C    1.321    37 C    0.980   174 H    0.895
                            31 O    0.203
    37   6 C    3.968 --    38 C    0.986    36 N    0.980    40 C    0.950
                           175 H    0.946
    38   6 C    3.910 --    39 O    1.911    37 C    0.986   176 H    0.948
    39   8 O    2.063 --    38 C    1.911
    40   6 C    3.984 --    41 C    0.989   178 H    0.971   177 H    0.970
                            37 C    0.950
    41   6 C    3.994 --    43 C    1.009    42 C    1.007    40 C    0.989
                           179 H    0.970
    42   6 C    3.995 --    41 C    1.007   182 H    0.986   181 H    0.984
                           180 H    0.982
    43   6 C    3.994 --    41 C    1.009   185 H    0.985   184 H    0.985
                           183 H    0.980
    44   7 N    2.964 --    45 C    1.006   186 H    0.958   187 H    0.952
    45   6 C    3.972 --    44 N    1.006    46 C    0.989   188 H    0.949
                            48 C    0.938
    46   6 C    3.899 --    47 O    1.898    45 C    0.989   189 H    0.949
    47   8 O    2.046 --    46 C    1.898
    48   6 C    3.985 --    50 C    1.008    49 C    0.994   190 H    0.950
                            45 C    0.938
    49   6 C    3.994 --    51 C    1.018    48 C    0.994   191 H    0.978
                           192 H    0.978
    50   6 C    3.995 --    48 C    1.008   194 H    0.980   193 H    0.978
                           195 H    0.977
    51   6 C    3.996 --    49 C    1.018   197 H    0.986   198 H    0.983
                           196 H    0.982
    52   7 N    3.004 --    53 C    1.013   199 H    0.955   200 H    0.952
    53   6 C    3.961 --    52 N    1.013   201 H    0.957    56 C    0.948
                            54 C    0.944
    54   6 C    3.949 --    55 O    1.623    66 N    1.310    53 C    0.944
    55   8 O    1.961 --    54 C    1.623    66 N    0.197
    56   6 C    3.978 --    57 C    1.030   203 H    0.966   202 H    0.952
                            53 C    0.948
    57   6 C    3.701 --    58 C    1.403    59 C    1.148    56 C    1.030
    58   6 C    3.962 --    60 N    1.409    57 C    1.403   204 H    0.970
    59   6 C    3.965 --    62 C    1.384    61 C    1.243    57 C    1.148
    60   7 N    2.736 --    58 C    1.409    61 C    1.204
    61   6 C    3.968 --    63 C    1.349    59 C    1.243    60 N    1.204
    62   6 C    3.890 --    64 C    1.395    59 C    1.384   205 H    0.970
    63   6 C    3.884 --    65 C    1.419    61 C    1.349   206 H    0.966
    64   6 C    3.930 --    65 C    1.424    62 C    1.395   207 H    0.973
    65   6 C    3.938 --    64 C    1.424    63 C    1.419   208 H    0.972
    66   7 N    3.486 --    54 C    1.310    67 C    0.971   209 H    0.928
                            55 O    0.197
    67   6 C    3.957 --    66 N    0.971    70 C    0.959   210 H    0.950
                            68 C    0.944
    68   6 C    3.951 --    69 O    1.593    73 N    1.332    67 C    0.944
    69   8 O    1.925 --    68 C    1.593    73 N    0.199
    70   6 C    3.989 --    71 C    1.007    72 C    1.003   211 H    0.971
                            67 C    0.959
    71   6 C    3.992 --    70 C    1.007   214 H    0.982   213 H    0.981
                           212 H    0.976
    72   6 C    3.993 --    70 C    1.003   217 H    0.985   216 H    0.984
                           215 H    0.980
    73   7 N    3.494 --    68 C    1.332    74 C    0.983   218 H    0.897
                            69 O    0.199
    74   6 C    3.961 --    73 N    0.983    77 C    0.957    75 C    0.953
                           219 H    0.936
    75   6 C    3.954 --    76 O    1.614    83 N    1.319    74 C    0.953
    76   8 O    1.938 --    75 C    1.614    83 N    0.196
    77   6 C    3.985 --    78 C    1.016    74 C    0.957   221 H    0.953
                           220 H    0.950
    78   6 C    3.903 --    80 C    1.567    79 N    1.146    77 C    1.016
                            81 C    0.114
    79   7 N    3.510 --    81 C    1.312    78 C    1.146   292 H    0.762
                           110 O    0.111
    80   6 C    3.892 --    78 C    1.567    82 N    1.206   222 H    0.961
    81   6 C    3.227 --    82 N    1.706    79 N    1.312    78 C    0.114
    82   7 N    3.071 --    81 C    1.706    80 C    1.206
    83   7 N    3.475 --    75 C    1.319    84 C    0.978   223 H    0.891
                            76 O    0.196
    84   6 C    3.967 --    83 N    0.978    87 C    0.961    85 C    0.951
                           224 H    0.950
    85   6 C    3.951 --    86 O    1.628    92 N    1.299    84 C    0.951
    86   8 O    1.960 --    85 C    1.628    92 N    0.194
    87   6 C    3.987 --    88 C    1.004   225 H    0.976   226 H    0.970
                            84 C    0.961
    88   6 C    3.993 --    89 C    1.007    87 C    1.004   228 H    0.975
                           227 H    0.974
    89   6 C    3.985 --    90 C    1.008    88 C    1.007   230 H    0.967
                           229 H    0.962
    90   6 C    3.907 --    89 C    1.008   232 H    0.968   231 H    0.967
                            91 N    0.943
    91   7 N    3.659 --    90 C    0.943   289 H    0.899   291 H    0.898
                           290 H    0.890
    92   7 N    3.480 --    85 C    1.299    93 C    0.989   233 H    0.915
                            86 O    0.194
    93   6 C    3.966 --    92 N    0.989    94 C    0.970   234 H    0.945
                            96 C    0.928
    94   6 C    3.894 --    95 O    1.888    93 C    0.970   235 H    0.950
    95   8 O    2.049 --    94 C    1.888
    96   6 C    3.951 --    98 C    1.007    97 O    0.996   236 H    0.953
                            93 C    0.928
    97   8 O    1.955 --    96 C    0.996   237 H    0.875
    98   6 C    3.989 --    96 C    1.007   238 H    0.981   240 H    0.979
                           239 H    0.978
    99   7 N    2.973 --   100 C    1.013   241 H    0.958   242 H    0.954
   100   6 C    3.975 --    99 N    1.013   103 C    0.964   243 H    0.950
                           101 C    0.943
   101   6 C    3.946 --   102 O    1.639   111 N    1.301   100 C    0.943
   102   8 O    1.945 --   101 C    1.639   111 N    0.199
   103   6 C    3.990 --   104 C    1.008   244 H    0.974   100 C    0.964
                           245 H    0.960
   104   6 C    3.987 --   106 C    1.413   105 C    1.407   103 C    1.008
   105   6 C    3.992 --   107 C    1.450   104 C    1.407   246 H    0.966
                           108 C    0.108
   106   6 C    3.990 --   108 C    1.444   104 C    1.413   247 H    0.971
                           107 C    0.106
   107   6 C    3.989 --   105 C    1.450   109 C    1.371   248 H    0.968
                           106 C    0.106
   108   6 C    3.988 --   106 C    1.444   109 C    1.374   249 H    0.969
                           105 C    0.108
   109   6 C    3.934 --   108 C    1.374   107 C    1.371   110 O    1.053
   110   8 O    2.068 --   109 C    1.053   250 H    0.716    79 N    0.111
   111   7 N    3.472 --   101 C    1.301   112 C    0.979   251 H    0.908
                           102 O    0.199
   112   6 C    3.964 --   111 N    0.979   252 H    0.958   115 C    0.949
                           113 C    0.946
   113   6 C    3.950 --   114 O    1.596   118 N    1.328   112 C    0.946
   114   8 O    1.952 --   113 C    1.596   118 N    0.196
   115   6 C    3.990 --   116 C    1.009   117 C    1.007   253 H    0.969
                           112 C    0.949
   116   6 C    3.994 --   115 C    1.009   254 H    0.986   255 H    0.984
                           256 H    0.979
   117   6 C    3.993 --   115 C    1.007   257 H    0.986   259 H    0.986
                           258 H    0.984
   118   7 N    3.493 --   113 C    1.328   119 C    0.973   260 H    0.921
                           114 O    0.196
   119   6 C    3.962 --   120 C    0.995   118 N    0.973   122 C    0.962
                           261 H    0.934
   120   6 C    3.886 --   121 O    1.883   119 C    0.995   262 H    0.876
   121   8 O    2.033 --   120 C    1.883
   122   6 C    3.983 --   263 H    0.985   265 H    0.980   264 H    0.972
                           119 C    0.962
   123   1 H    1.000 --   266 H    0.984
   124   1 H    1.000 --   267 H    0.996
   125   1 H    1.000 --   268 H    0.971
   126   1 H    1.000 --   269 H    0.984
   127   1 H    1.000 --   270 H    0.973
   128   1 H    0.998 --   271 H    0.918
   129   1 H    1.000 --   272 H    0.987
   130   1 H    1.000 --   273 H    0.956
   131   1 H    1.000 --   274 H    0.938
   132   1 H    1.000 --   275 H    0.994
   133   1 H    1.000 --   276 H    0.981
   134   1 H    1.000 --   277 H    0.978
   135   1 H    1.000 --   278 H    0.994
   136   1 H    1.000 --   279 H    0.981
   137   1 H    1.000 --   280 H    0.975
   138   1 H    1.000 --   281 H    0.988
   139   1 H    0.999 --   282 H    0.977
   140   1 H    1.000 --   283 H    0.970
   141   1 H    1.000 --   284 H    0.960
   142   1 H    1.000 --   285 H    0.955
   143   1 H    1.000 --   286 H    0.934
   144   1 H    1.000 --   287 H    0.947
   145   1 H    1.000 --   288 H    0.879
   146   1 H    0.966 --     1 N    0.953
   147   1 H    0.973 --     1 N    0.959
   148   1 H    0.988 --     2 C    0.956
   149   1 H    0.993 --     2 C    0.972
   150   1 H    0.958 --     5 N    0.928
   151   1 H    0.994 --     6 C    0.950
   152   1 H    0.978 --     9 C    0.943
   153   1 H    0.994 --     9 C    0.970
   154   1 H    0.997 --    11 C    0.970
   155   1 H    0.996 --    15 C    0.968
   156   1 H    0.995 --    16 C    0.968
   157   1 H    0.997 --    17 C    0.973
   158   1 H    0.996 --    18 C    0.966
   159   1 H    0.948 --    19 N    0.912
   160   1 H    0.993 --    20 C    0.954
   161   1 H    0.995 --    23 C    0.974
   162   1 H    0.992 --    23 C    0.971
   163   1 H    0.990 --    24 C    0.965
   164   1 H    0.990 --    24 C    0.953
   165   1 H    0.956 --    28 N    0.926
   166   1 H    0.990 --    29 C    0.943
   167   1 H    0.994 --    32 C    0.966
   168   1 H    0.995 --    32 C    0.964
   169   1 H    0.993 --    33 C    0.955
   170   1 H    0.987 --    33 C    0.968
   171   1 H    0.994 --    35 C    0.977
   172   1 H    0.989 --    35 C    0.979
   173   1 H    0.990 --    35 C    0.969
   174   1 H    0.945 --    36 N    0.895
   175   1 H    0.991 --    37 C    0.946
   176   1 H    0.994 --    38 C    0.948
   177   1 H    0.996 --    40 C    0.970
   178   1 H    0.995 --    40 C    0.971
   179   1 H    0.998 --    41 C    0.970
   180   1 H    0.998 --    42 C    0.982
   181   1 H    0.999 --    42 C    0.984
   182   1 H    0.998 --    42 C    0.986
   183   1 H    0.998 --    43 C    0.980
   184   1 H    0.997 --    43 C    0.985
   185   1 H    0.998 --    43 C    0.985
   186   1 H    0.971 --    44 N    0.958
   187   1 H    0.968 --    44 N    0.952
   188   1 H    0.983 --    45 C    0.949
   189   1 H    0.994 --    46 C    0.949
   190   1 H    0.997 --    48 C    0.950
   191   1 H    0.998 --    49 C    0.978
   192   1 H    0.997 --    49 C    0.978
   193   1 H    0.998 --    50 C    0.978
   194   1 H    0.997 --    50 C    0.980
   195   1 H    0.998 --    50 C    0.977
   196   1 H    0.999 --    51 C    0.982
   197   1 H    0.998 --    51 C    0.986
   198   1 H    0.999 --    51 C    0.983
   199   1 H    0.969 --    52 N    0.955
   200   1 H    0.969 --    52 N    0.952
   201   1 H    0.992 --    53 C    0.957
   202   1 H    0.980 --    56 C    0.952
   203   1 H    0.992 --    56 C    0.966
   204   1 H    0.997 --    58 C    0.970
   205   1 H    0.997 --    62 C    0.970
   206   1 H    0.994 --    63 C    0.966
   207   1 H    0.997 --    64 C    0.973
   208   1 H    0.996 --    65 C    0.972
   209   1 H    0.960 --    66 N    0.928
   210   1 H    0.992 --    67 C    0.950
   211   1 H    0.998 --    70 C    0.971
   212   1 H    0.997 --    71 C    0.976
   213   1 H    0.998 --    71 C    0.981
   214   1 H    0.996 --    71 C    0.982
   215   1 H    0.997 --    72 C    0.980
   216   1 H    0.997 --    72 C    0.984
   217   1 H    0.998 --    72 C    0.985
   218   1 H    0.945 --    73 N    0.897
   219   1 H    0.989 --    74 C    0.936
   220   1 H    0.991 --    77 C    0.950
   221   1 H    0.989 --    77 C    0.953
   222   1 H    0.994 --    80 C    0.961
   223   1 H    0.946 --    83 N    0.891
   224   1 H    0.994 --    84 C    0.950
   225   1 H    0.996 --    87 C    0.976
   226   1 H    0.995 --    87 C    0.970
   227   1 H    0.997 --    88 C    0.974
   228   1 H    0.996 --    88 C    0.975
   229   1 H    0.991 --    89 C    0.962
   230   1 H    0.996 --    89 C    0.967
   231   1 H    0.986 --    90 C    0.967
   232   1 H    0.985 --    90 C    0.968
   233   1 H    0.952 --    92 N    0.915
   234   1 H    0.990 --    93 C    0.945
   235   1 H    0.992 --    94 C    0.950
   236   1 H    0.993 --    96 C    0.953
   237   1 H    0.890 --    97 O    0.875
   238   1 H    0.997 --    98 C    0.981
   239   1 H    0.996 --    98 C    0.978
   240   1 H    0.994 --    98 C    0.979
   241   1 H    0.971 --    99 N    0.958
   242   1 H    0.968 --    99 N    0.954
   243   1 H    0.985 --   100 C    0.950
   244   1 H    0.994 --   103 C    0.974
   245   1 H    0.995 --   103 C    0.960
   246   1 H    0.998 --   105 C    0.966
   247   1 H    0.997 --   106 C    0.971
   248   1 H    0.998 --   107 C    0.968
   249   1 H    0.996 --   108 C    0.969
   250   1 H    0.870 --   110 O    0.716   292 H    0.123
   251   1 H    0.952 --   111 N    0.908
   252   1 H    0.994 --   112 C    0.958
   253   1 H    0.998 --   115 C    0.969
   254   1 H    0.998 --   116 C    0.986
   255   1 H    0.999 --   116 C    0.984
   256   1 H    0.996 --   116 C    0.979
   257   1 H    0.997 --   117 C    0.986
   258   1 H    0.997 --   117 C    0.984
   259   1 H    0.998 --   117 C    0.986
   260   1 H    0.953 --   118 N    0.921
   261   1 H    0.988 --   119 C    0.934
   262   1 H    0.989 --   120 C    0.876
   263   1 H    0.996 --   122 C    0.985
   264   1 H    0.993 --   122 C    0.972
   265   1 H    0.996 --   122 C    0.980
   266   1 H    1.000 --   123 H    0.984
   267   1 H    1.000 --   124 H    0.996
   268   1 H    1.000 --   125 H    0.971
   269   1 H    1.000 --   126 H    0.984
   270   1 H    1.000 --   127 H    0.973
   271   1 H    1.000 --   128 H    0.918
   272   1 H    1.000 --   129 H    0.987
   273   1 H    1.000 --   130 H    0.956
   274   1 H    1.000 --   131 H    0.938
   275   1 H    1.000 --   132 H    0.994
   276   1 H    1.000 --   133 H    0.981
   277   1 H    1.000 --   134 H    0.978
   278   1 H    1.000 --   135 H    0.994
   279   1 H    1.000 --   136 H    0.981
   280   1 H    1.000 --   137 H    0.975
   281   1 H    1.000 --   138 H    0.988
   282   1 H    1.000 --   139 H    0.977
   283   1 H    1.000 --   140 H    0.970
   284   1 H    1.000 --   141 H    0.960
   285   1 H    1.000 --   142 H    0.955
   286   1 H    1.000 --   143 H    0.934
   287   1 H    1.000 --   144 H    0.947
   288   1 H    0.999 --   145 H    0.879
   289   1 H    0.921 --    91 N    0.899
   290   1 H    0.908 --    91 N    0.890
   291   1 H    0.909 --    91 N    0.898
   292   1 H    0.930 --    79 N    0.762   250 H    0.123
 ---------------------------------------------------------------------------

Topologies differ in total number of bonds
Writing topology from bond orders to xtbtopo.mol

molecular dipole:
                 x           y           z       tot (Debye)
 q only:      -53.279      -0.481      46.634
   full:      -52.512      -0.618      46.957     179.060
molecular quadrupole (traceless):
                xx          xy          yy          xz          yz          zz
 q only:     1772.664     -26.171   -2708.713   -3624.092     -46.142     936.048
  q+dip:     1698.718     -15.221   -2703.774   -3576.958     -63.590    1005.055
   full:     1690.588     -21.701   -2701.967   -3576.671     -60.281    1011.379


           -------------------------------------------------
          | TOTAL ENERGY             -396.208568241677 Eh   |
          | GRADIENT NORM               1.401368465931 Eh/α |
          | HOMO-LUMO GAP               0.005255020796 eV   |
           -------------------------------------------------
########################################################################
[WARNING] Runtime exception occurred
-3- restart_readRestart: Dimension missmatch in restart file.
-2- restart_readRestart: Multiplicity missmatch in restart file.
-1- restart_readRestart: Number of electron missmatch in restart file.
########################################################################

------------------------------------------------------------------------
 * finished run on 2025/05/05 at 16:39:05.027     
------------------------------------------------------------------------
 total:
 * wall-time:     0 d,  0 h,  0 min,  2.394 sec
 *  cpu-time:     0 d,  0 h,  1 min, 14.042 sec
 * ratio c/w:    30.924 speedup
 SCF:
 * wall-time:     0 d,  0 h,  0 min,  2.359 sec
 *  cpu-time:     0 d,  0 h,  1 min, 13.060 sec
 * ratio c/w:    30.976 speedup

