      -----------------------------------------------------------      
     |                   =====================                   |     
     |                           x T B                           |     
     |                   =====================                   |     
     |                         S. Grimme                         |     
     |          Mulliken Center for Theoretical Chemistry        |     
     |                    University of Bonn                     |     
      -----------------------------------------------------------      

   * xtb version 6.7.1 (edcfbbe) compiled by 'conda@afd1a870197c' on 2025-04-11

   xtb is free software: you can redistribute it and/or modify it under
   the terms of the GNU Lesser General Public License as published by
   the Free Software Foundation, either version 3 of the License, or
   (at your option) any later version.
   
   xtb is distributed in the hope that it will be useful,
   but WITHOUT ANY WARRANTY; without even the implied warranty of
   MERCHANTABILITY or FITNESS FOR A PARTICULAR PURPOSE.  See the
   GNU Lesser General Public License for more details.
   
   Cite this work as:
   * C. Bannwarth, E. Caldeweyher, S. Ehlert, A. Hansen, P. Pracht,
     J. Seibert, S. Spicher, S. Grimme, WIREs Comput. Mol. Sci., 2020, 11,
     e01493. DOI: 10.1002/wcms.1493
   
   for GFN2-xTB:
   * C. Bannwarth, S. Ehlert and S. Grimme., J. Chem. Theory Comput., 2019,
     15, 1652-1671. DOI: 10.1021/acs.jctc.8b01176
   for GFN1-xTB:
   * S. Grimme, C. Bannwarth, P. Shushkov, J. Chem. Theory Comput., 2017,
     13, 1989-2009. DOI: 10.1021/acs.jctc.7b00118
   for GFN0-xTB:
   * P. Pracht, E. Caldeweyher, S. Ehlert, S. Grimme, ChemRxiv, 2019, preprint.
     DOI: 10.26434/chemrxiv.8326202.v1
   for GFN-FF:
   * S. Spicher and S. Grimme, Angew. Chem. Int. Ed., 2020, 59, 15665-15673.
     DOI: 10.1002/anie.202004239
   
   for ALPB and GBSA implicit solvation:
   * S. Ehlert, M. Stahn, S. Spicher, S. Grimme, J. Chem. Theory Comput.,
     2021, 17, 4250-4261. DOI: 10.1021/acs.jctc.1c00471
   
   for ddCOSMO and CPCM-X implicit solvation:
   * M. Stahn, S. Ehlert, S. Grimme, J. Phys. Chem. A,
     2023, XX, XXXX-XXXX. DOI: 10.1021/acs.jpca.3c04382
   
   for DFT-D4:
   * E. Caldeweyher, C. Bannwarth and S. Grimme, J. Chem. Phys., 2017,
     147, 034112. DOI: 10.1063/1.4993215
   * E. Caldeweyher, S. Ehlert, A. Hansen, H. Neugebauer, S. Spicher,
     C. Bannwarth and S. Grimme, J. Chem. Phys., 2019, 150, 154122.
     DOI: 10.1063/1.5090222
   * E. Caldeweyher, J.-M. Mewes, S. Ehlert and S. Grimme, Phys. Chem. Chem. Phys.
     2020, 22, 8499-8512. DOI: 10.1039/D0CP00502A
   
   for sTDA-xTB:
   * S. Grimme and C. Bannwarth, J. Chem. Phys., 2016, 145, 054103.
     DOI: 10.1063/1.4959605
   
   in the mass-spec context:
   * V. Asgeirsson, C. Bauer and S. Grimme, Chem. Sci., 2017, 8, 4879.
     DOI: 10.1039/c7sc00601b
   * J. Koopman and S. Grimme, ACS Omega 2019, 4, 12, 15120-15133.
     DOI: 10.1021/acsomega.9b02011
   
   for metadynamics refer to:
   * S. Grimme, J. Chem. Theory Comput., 2019, 155, 2847-2862
     DOI: 10.1021/acs.jctc.9b00143
   
   for SPH calculations refer to:
   * S. Spicher and S. Grimme, J. Chem. Theory Comput., 2021, 17, 1701-1714
     DOI: 10.1021/acs.jctc.0c01306
   
   for ONIOM refer to:
   * C. Plett, A. Katbashev, S. Ehlert, S. Grimme, M. Bursch,
     Phys. Chem. Chem. Phys., 2023, 25, 17860-17868. DOI: 10.1039/D3CP02178E
   
   for DIPRO refer to:
   * J. Kohn, N. Gildemeister, S. Grimme, D. Fazzi, A. Hansen,
     J. Chem. Phys., 2023, just accepted.
   
   for PTB refer to:
   * S. Grimme, M. Mueller, A. Hansen, J. Chem. Phys., 2023, 158, 124111.
     DOI: 10.1063/5.0137838
   
   with help from (in alphabetical order)
   P. Atkinson, C. Bannwarth, F. Bohle, G. Brandenburg, E. Caldeweyher
   M. Checinski, S. Dohm, S. Ehlert, S. Ehrlich, I. Gerasimov, C. Hölzer
   A. Katbashev, J. Kohn, J. Koopman, C. Lavigne, S. Lehtola, F. März, M. Müller,
   F. Musil, H. Neugebauer, J. Pisarek, C. Plett, P. Pracht, F. Pultar,
   J. Seibert, P. Shushkov, S. Spicher, M. Stahn, M. Steiner, T. Strunk,
   J. Stückrath, T. Rose, and J. Unsleber
   
 * started run on 2025/05/05 at 17:06:50.131     
   ID    Z sym.   atoms
    1    7 N      1, 8, 10-12, 19, 25, 28, 29, 35, 38, 39, 45, 52, 54-56, 65,
                  73, 82, 87
    2    6 C      2, 3, 5-7, 9, 13, 14, 16, 18, 20, 21, 23, 24, 26, 27, 30,
                  31, 33, 34, 36, 37, 40, 41, 43, 46, 47, 49-51, 53, 57, 58,
                  60-62, 66, 67, 69-72, 74, 75, 77-79, 83, 84, 86, 88, 89,
                  91-97
    3    8 O      4, 15, 17, 22, 32, 42, 44, 48, 59, 63, 64, 68, 76, 80, 81,
                  85, 90, 98
    4    1 H      99-226

           -------------------------------------------------
          |                Calculation Setup                |
           -------------------------------------------------

          program call               : xtb /tmp/tmpkxeg2kbf/HIE/input.xyz --alpb ether --chrg 0 --input /tmp/tmpkxeg2kbf/HIE/constraints.inp --gfn 2
          hostname                   : fedora
          coordinate file            : /tmp/tmpkxeg2kbf/HIE/input.xyz
          omp threads                :                    32


molecular fragmentation (1/2 indicates fragments):
111111111112222222222222222222222222222222222222222222222222222222222222
222222222222222222222222222222222222222222221111111111111122222222222222
222222222222222222222222222222222222222222222222222222222222222222222222
2222222122
# atoms in fragment 1/2:    26   200
 fragment masses (1/2) :      159.21     1260.57
CMA distance (Bohr)    :  16.763
constraining FC (au)   :  0.0500
########################################################################
[WARNING] Please study the warnings concerning your input carefully
-1- readin_getIntValue: could not parse 'S'
########################################################################

           -------------------------------------------------
          |                 G F N 2 - x T B                 |
           -------------------------------------------------

        Reference                      10.1021/acs.jctc.8b01176
      * Hamiltonian:
        H0-scaling (s, p, d)           1.850000    2.230000    2.230000
        zeta-weighting                 0.500000
      * Dispersion:
        s8                             2.700000
        a1                             0.520000
        a2                             5.000000
        s9                             5.000000
      * Repulsion:
        kExp                           1.500000    1.000000
        rExp                           1.000000
      * Coulomb:
        alpha                          2.000000
        third order                    shell-resolved
        anisotropic                    true
        a3                             3.000000
        a5                             4.000000
        cn-shift                       1.200000
        cn-exp                         4.000000
        max-rad                        5.000000

      * Solvation model:               ALPB
        Solvent                        ether
        Parameter file                 internal GFN2-xTB/ALPB
        Dielectric constant                4.3300E+00
        Reference state                gsolv [1 M gas/solution]
        Free energy shift                  4.9534E-03 Eh       3.1083E+00 kcal/mol
        Temperature                        2.9815E+02 K
        Density                            7.1300E-01 kg/L
        Solvent mass                       7.4120E+01 g/mol
        Interaction kernel             P16
        Born radius scaling (c1)           1.5847E+00
        Born radii integrator          GBOBC
        Born offset                        0.0000E+00 a0       0.0000E+00 AA
        H-bond correction              true
        Ion screening                  false
        Surface tension                    1.0000E-05 Eh       1.5569E+01 dyn/cm
        Grid points                               230 per atom

          ...................................................
          :                      SETUP                      :
          :.................................................:
          :  # basis functions                 520          :
          :  # atomic orbitals                 520          :
          :  # shells                          324          :
          :  # electrons                       577          :
          :  max. iterations                   250          :
          :  Hamiltonian                  GFN2-xTB          :
          :  restarted?                      false          :
          :  GBSA solvation                   true          :
          :  PC potential                    false          :
          :  electronic temp.          300.0000000     K    :
          :  accuracy                    1.0000000          :
          :  -> integral cutoff          0.2500000E+02      :
          :  -> integral neglect         0.1000000E-07      :
          :  -> SCF convergence          0.1000000E-05 Eh   :
          :  -> wf. convergence          0.1000000E-03 e    :
          :  Broyden damping             0.4000000          :
          :  net charge                          0          :
          :  unpaired electrons                  0          :
          ...................................................

 iter      E             dE          RMSdq      gap      omega  full diag
   1   -328.1335201 -0.328134E+03  0.440E+00    0.03       0.0  T
   2   -325.7905485  0.234297E+01  0.375E+00    0.04       1.0  T
   3   -328.6987210 -0.290817E+01  0.248E+00    1.31       1.0  T
   4   -329.4508434 -0.752122E+00  0.164E+00    0.73       1.0  T
   5   -329.4339305  0.169129E-01  0.171E+00    0.15       1.0  T
   6   -329.8659725 -0.432042E+00  0.105E+00    0.10       1.0  T
   7   -329.3125288  0.553444E+00  0.137E+00    0.10       1.0  T
   8   -330.0036400 -0.691111E+00  0.929E-01    0.21       1.0  T
   9   -329.6001126  0.403527E+00  0.109E+00    0.06       1.0  T
  10   -329.9152446 -0.315132E+00  0.833E-01    0.49       1.0  T
  11   -330.0758526 -0.160608E+00  0.612E-01    0.07       1.0  T
  12   -329.8881923  0.187660E+00  0.797E-01    0.41       1.0  T
  13   -330.0874377 -0.199245E+00  0.561E-01    0.23       1.0  T
  14   -330.0965258 -0.908814E-02  0.500E-01    0.19       1.0  T
  15   -330.1050557 -0.852990E-02  0.439E-01    0.10       1.0  T
  16   -330.1085170 -0.346126E-02  0.415E-01    0.10       1.0  T
  17   -330.1098252 -0.130823E-02  0.401E-01    0.10       1.0  T
  18   -330.1147111 -0.488591E-02  0.373E-01    0.10       1.0  T
  19   -330.1246173 -0.990619E-02  0.278E-01    0.05       1.0  T
  20   -330.1224005  0.221679E-02  0.305E-01    0.08       1.0  T
  21   -330.1351777 -0.127772E-01  0.200E-01    0.07       1.0  T
  22   -330.1342832  0.894532E-03  0.206E-01    0.07       1.0  T
  23   -330.1352731 -0.989885E-03  0.192E-01    0.07       1.0  T
  24   -330.0920126  0.432605E-01  0.381E-01    0.06       1.0  T
  25   -330.1226585 -0.306459E-01  0.254E-01    0.07       1.0  T
  26   -330.1396523 -0.169938E-01  0.119E-01    0.07       1.0  T
  27   -330.1412134 -0.156103E-02  0.829E-02    0.05       1.0  T
  28   -330.1430757 -0.186233E-02  0.562E-02    0.05       1.0  T
  29   -330.1432933 -0.217638E-03  0.491E-02    0.05       1.0  T
  30   -330.1438869 -0.593542E-03  0.326E-02    0.05       1.0  T
  31   -330.1440625 -0.175570E-03  0.247E-02    0.05       1.0  T
  32   -330.1441982 -0.135725E-03  0.142E-02    0.05       1.0  T
  33   -330.1442505 -0.522751E-04  0.936E-03    0.05       1.0  T
  34   -330.1442641 -0.136652E-04  0.629E-03    0.05       1.1  T
  35   -330.1442764 -0.122589E-04  0.218E-03    0.05       3.1  T
  36   -330.1442778 -0.144100E-05  0.133E-03    0.05       5.0  T
  37   -330.1442779 -0.913427E-07  0.111E-03    0.05       6.0  T
  38   -330.1442784 -0.468371E-06  0.187E-04    0.05      35.7  T
  39   -330.1442784 -0.695144E-08  0.137E-04    0.05      48.5  T

   *** convergence criteria satisfied after 39 iterations ***

         #    Occupation            Energy/Eh            Energy/eV
      -------------------------------------------------------------
         1        2.0000           -0.7452277             -20.2787
       ...           ...                  ...                  ...
       283        1.9999           -0.3727765             -10.1438
       284        1.9998           -0.3725634             -10.1380
       285        1.9643           -0.3674315              -9.9983
       286        1.8621           -0.3660724              -9.9613
       287        1.8448           -0.3659473              -9.9579
       288        1.7742           -0.3655353              -9.9467
       289        1.1591           -0.3636831              -9.8963 (HOMO)
       290        0.3959           -0.3617815              -9.8446 (LUMO)
       291                         -0.2932500              -7.9797
       292                         -0.2898975              -7.8885
       293                         -0.2851490              -7.7593
       294                         -0.2475223              -6.7354
       ...                                ...                  ...
       520                          1.3621953              37.0672
      -------------------------------------------------------------
                  HL-Gap            0.0019016 Eh            0.0517 eV
             Fermi-level           -0.3633196 Eh           -9.8864 eV

 SCC (total)                   0 d,  0 h,  0 min,  1.684 sec
 SCC setup                      ...        0 min,  0.004 sec (  0.215%)
 Dispersion                     ...        0 min,  0.009 sec (  0.517%)
 classical contributions        ...        0 min,  0.001 sec (  0.037%)
 integral evaluation            ...        0 min,  0.014 sec (  0.834%)
 iterations                     ...        0 min,  1.593 sec ( 94.606%)
 molecular gradient             ...        0 min,  0.057 sec (  3.408%)
 printout                       ...        0 min,  0.006 sec (  0.381%)

         :::::::::::::::::::::::::::::::::::::::::::::::::::::
         ::                     SUMMARY                     ::
         :::::::::::::::::::::::::::::::::::::::::::::::::::::
         :: total energy            -324.583309250794 Eh    ::
         :: total w/o Gsasa/hb      -324.495129637165 Eh    ::
         :: gradient norm              1.258868900323 Eh/a0 ::
         :: HOMO-LUMO gap              0.051745743398 eV    ::
         ::.................................................::
         :: SCC energy              -330.119224770128 Eh    ::
         :: -> isotropic ES            0.946350338798 Eh    ::
         :: -> anisotropic ES          0.060218344050 Eh    ::
         :: -> anisotropic XC          0.203746640806 Eh    ::
         :: -> dispersion             -0.266586514450 Eh    ::
         :: -> Gsolv                  -0.228171283559 Eh    ::
         ::    -> Gelec               -0.139991669930 Eh    ::
         ::    -> Gsasa               -0.073908164578 Eh    ::
         ::    -> Ghb                 -0.019224886629 Eh    ::
         ::    -> Gshift               0.004953437577 Eh    ::
         :: repulsion energy           5.535915519334 Eh    ::
         :: add. restraining           0.000000000000 Eh    ::
         :: total charge               0.000000000859 e     ::
         :::::::::::::::::::::::::::::::::::::::::::::::::::::

           -------------------------------------------------
          |                Property Printout                |
           -------------------------------------------------

    * Orbital Energies and Occupations

         #    Occupation            Energy/Eh            Energy/eV
      -------------------------------------------------------------
         1        2.0000           -0.7452277             -20.2787
       ...           ...                  ...                  ...
       277        2.0000           -0.3840408             -10.4503
       278        2.0000           -0.3815224             -10.3818
       279        2.0000           -0.3796602             -10.3311
       280        2.0000           -0.3793328             -10.3222
       281        2.0000           -0.3778970             -10.2831
       282        2.0000           -0.3760341             -10.2324
       283        1.9999           -0.3727765             -10.1438
       284        1.9998           -0.3725634             -10.1380
       285        1.9643           -0.3674315              -9.9983
       286        1.8621           -0.3660724              -9.9613
       287        1.8448           -0.3659473              -9.9579
       288        1.7742           -0.3655353              -9.9467
       289        1.1591           -0.3636831              -9.8963 (HOMO)
       290        0.3959           -0.3617815              -9.8446 (LUMO)
       291                         -0.2932500              -7.9797
       292                         -0.2898975              -7.8885
       293                         -0.2851490              -7.7593
       294                         -0.2475223              -6.7354
       295                         -0.2473545              -6.7309
       296                         -0.2340805              -6.3697
       297                         -0.2298255              -6.2539
       298                         -0.2234986              -6.0817
       299                         -0.2213350              -6.0228
       300                         -0.2170138              -5.9052
       ...                                ...                  ...
       520                          1.3621953              37.0672
      -------------------------------------------------------------
                  HL-Gap            0.0019016 Eh            0.0517 eV
             Fermi-level           -0.3633196 Eh           -9.8864 eV

     #   Z          covCN         q      C6AA      α(0)
     1   7 N        2.636    -0.364    29.385     8.051
     2   6 C        3.787     0.032    20.052     6.378
     3   6 C        2.773     0.200    23.748     7.981
     4   8 O        0.856    -0.362    20.940     6.135
     5   6 C        3.816    -0.075    21.918     6.663
     6   6 C        3.806    -0.084    22.097     6.692
     7   6 C        3.739    -0.023    21.065     6.549
     8   7 N        2.699    -0.150    24.238     7.312
     9   6 C        2.735     0.239    23.001     7.852
    10   7 N        2.649    -0.231    26.051     7.580
    11   7 N        2.652    -0.253    26.580     7.657
    12   7 N        2.627    -0.388    30.049     8.141
    13   6 C        3.788     0.019    20.274     6.413
    14   6 C        2.757     0.271    22.416     7.753
    15   8 O        0.859    -0.505    23.889     6.553
    16   6 C        3.730     0.115    18.787     6.187
    17   8 O        1.651    -0.483    22.522     6.406
    18   6 C        3.758    -0.136    23.172     6.863
    19   7 N        2.686    -0.190    25.125     7.445
    20   6 C        3.797     0.025    20.162     6.394
    21   6 C        2.758     0.268    22.469     7.762
    22   8 O        0.858    -0.493    23.622     6.516
    23   6 C        3.811    -0.062    21.683     6.628
    24   6 C        3.074     0.054    26.712     8.474
    25   7 N        1.971    -0.224    26.710     7.664
    26   6 C        3.040     0.004    27.903     8.664
    27   6 C        2.092     0.128    27.776     8.515
    28   7 N        1.964    -0.250    27.328     7.752
    29   7 N        2.688    -0.153    24.321     7.324
    30   6 C        3.800     0.031    20.053     6.376
    31   6 C        2.749     0.275    22.343     7.740
    32   8 O        0.857    -0.507    23.936     6.559
    33   6 C        3.812    -0.074    21.906     6.662
    34   6 C        3.084     0.045    26.896     8.502
    35   7 N        1.979    -0.329    29.342     8.033
    36   6 C        3.050    -0.025    28.587     8.769
    37   6 C        2.100    -0.019    31.372     9.050
    38   7 N        2.833    -0.080    22.796     7.091
    39   7 N        2.685    -0.186    25.042     7.432
    40   6 C        3.790     0.010    20.421     6.436
    41   6 C        2.756     0.278    22.288     7.731
    42   8 O        0.860    -0.488    23.523     6.503
    43   6 C        3.683     0.069    19.621     6.343
    44   8 O        1.653    -0.463    22.112     6.348
    45   7 N        2.687    -0.171    24.712     7.383
    46   6 C        3.799     0.016    20.312     6.417
    47   6 C        2.756     0.269    22.453     7.760
    48   8 O        0.859    -0.500    23.789     6.539
    49   6 C        3.809    -0.086    22.126     6.696
    50   6 C        3.804    -0.088    22.172     6.704
    51   6 C        3.740    -0.032    21.233     6.575
    52   7 N        2.692    -0.136    23.949     7.268
    53   6 C        2.734     0.233    23.116     7.872
    54   7 N        2.648    -0.254    26.615     7.662
    55   7 N        2.650    -0.251    26.523     7.649
    56   7 N        2.687    -0.179    24.888     7.409
    57   6 C        3.798     0.014    20.340     6.422
    58   6 C        2.757     0.269    22.460     7.761
    59   8 O        0.859    -0.485    23.453     6.493
    60   6 C        3.808    -0.055    21.550     6.608
    61   6 C        3.809    -0.083    22.069     6.687
    62   6 C        2.689     0.366    20.792     7.462
    63   8 O        0.856    -0.570    25.387     6.755
    64   8 O        0.857    -0.591    25.895     6.823
    65   7 N        2.692    -0.160    24.454     7.344
    66   6 C        3.801     0.024    20.173     6.395
    67   6 C        2.769     0.203    23.681     7.970
    68   8 O        0.856    -0.363    20.965     6.139
    69   6 C        3.859    -0.019    20.869     6.497
    70   6 C        3.809    -0.064    21.729     6.636
    71   6 C        3.760    -0.126    22.963     6.831
    72   6 C        3.758    -0.117    22.795     6.807
    73   7 N        2.628    -0.341    28.780     7.968
    74   6 C        3.784     0.024    20.188     6.400
    75   6 C        2.751     0.265    22.536     7.773
    76   8 O        0.859    -0.484    23.423     6.489
    77   6 C        3.799    -0.070    21.835     6.653
    78   6 C        3.796    -0.089    22.212     6.711
    79   6 C        2.683     0.355    20.968     7.494
    80   8 O        0.856    -0.592    25.930     6.827
    81   8 O        0.856    -0.606    26.265     6.871
    82   7 N        2.688    -0.171    24.708     7.383
    83   6 C        3.792     0.022    20.216     6.403
    84   6 C        2.755     0.261    22.597     7.784
    85   8 O        0.857    -0.508    23.973     6.564
    86   6 C        3.755    -0.135    23.162     6.862
    87   7 N        2.692    -0.145    24.146     7.298
    88   6 C        3.801     0.035    19.983     6.364
    89   6 C        2.777     0.092    25.950     8.343
    90   8 O        0.857    -0.382    21.323     6.191
    91   6 C        3.823    -0.072    21.858     6.653
    92   6 C        2.964    -0.002    28.083     8.692
    93   6 C        2.929    -0.047    29.165     8.857
    94   6 C        2.928    -0.050    29.237     8.867
    95   6 C        2.918    -0.073    29.818     8.955
    96   6 C        2.916    -0.063    29.559     8.915
    97   6 C        2.843     0.147    24.801     8.162
    98   8 O        1.661    -0.439    21.628     6.278
    99   1 H        0.980     0.005     2.971     2.693
   100   1 H        0.980    -0.018     3.383     2.874
   101   1 H        0.980     0.022     2.696     2.566
   102   1 H        0.980     0.000     3.046     2.727
   103   1 H        0.980     0.004     2.977     2.696
   104   1 H        0.980     0.004     2.974     2.695
   105   1 H        0.980    -0.009     3.214     2.801
   106   1 H        0.980     0.007     2.939     2.679
   107   1 H        0.980     0.004     2.980     2.697
   108   1 H        0.980     0.012     2.849     2.637
   109   1 H        0.980    -0.003     3.106     2.754
   110   1 H        0.980     0.015     2.798     2.614
   111   1 H        0.980    -0.026     3.532     2.937
   112   1 H        0.980    -0.010     3.223     2.805
   113   1 H        0.980     0.019     2.733     2.583
   114   1 H        0.980    -0.012     3.266     2.824
   115   1 H        0.980    -0.015     3.322     2.848
   116   1 H        0.980     0.016     2.784     2.607
   117   1 H        0.860     0.162     1.320     1.800
   118   1 H        0.860     0.169     1.276     1.770
   119   1 H        0.927     0.060     2.200     2.319
   120   1 H        0.929     0.066     2.132     2.283
   121   1 H        0.927     0.062     2.178     2.308
   122   1 H        0.927     0.062     2.178     2.308
   123   1 H        0.927     0.057     2.232     2.336
   124   1 H        0.927     0.070     2.089     2.260
   125   1 H        0.926     0.083     1.945     2.181
   126   1 H        0.927     0.075     2.036     2.231
   127   1 H        0.861     0.234     0.947     1.524
   128   1 H        0.861     0.246     0.900     1.486
   129   1 H        0.861     0.228     0.974     1.546
   130   1 H        0.861     0.244     0.908     1.492
   131   1 H        0.860     0.151     1.396     1.851
   132   1 H        0.860     0.169     1.280     1.772
   133   1 H        0.926     0.037     2.483     2.464
   134   1 H        0.927     0.052     2.291     2.367
   135   1 H        0.804     0.326     0.647     1.263
   136   1 H        0.927     0.060     2.203     2.321
   137   1 H        0.927     0.049     2.337     2.390
   138   1 H        0.927     0.062     2.172     2.305
   139   1 H        0.861     0.229     0.968     1.541
   140   1 H        0.926     0.084     1.933     2.174
   141   1 H        0.927     0.075     2.032     2.229
   142   1 H        0.927     0.078     2.001     2.212
   143   1 H        0.929     0.057     2.236     2.338
   144   1 H        0.861     0.203     1.091     1.636
   145   1 H        0.927     0.087     1.909     2.160
   146   1 H        0.927     0.060     2.196     2.317
   147   1 H        0.927     0.081     1.966     2.192
   148   1 H        0.929     0.030     2.586     2.514
   149   1 H        0.861     0.243     0.910     1.495
   150   1 H        0.927     0.092     1.858     2.131
   151   1 H        0.927     0.050     2.322     2.383
   152   1 H        0.927     0.080     1.979     2.200
   153   1 H        0.804     0.317     0.673     1.289
   154   1 H        0.861     0.218     1.020     1.582
   155   1 H        0.927     0.092     1.856     2.131
   156   1 H        0.927     0.073     2.057     2.243
   157   1 H        0.927     0.078     2.003     2.213
   158   1 H        0.927     0.071     2.079     2.255
   159   1 H        0.927     0.075     2.030     2.228
   160   1 H        0.926     0.097     1.817     2.108
   161   1 H        0.926     0.090     1.881     2.145
   162   1 H        0.861     0.246     0.899     1.485
   163   1 H        0.861     0.253     0.871     1.462
   164   1 H        0.861     0.231     0.962     1.536
   165   1 H        0.861     0.250     0.882     1.471
   166   1 H        0.861     0.224     0.990     1.559
   167   1 H        0.927     0.092     1.862     2.134
   168   1 H        0.927     0.051     2.307     2.375
   169   1 H        0.927     0.057     2.238     2.339
   170   1 H        0.927     0.055     2.258     2.350
   171   1 H        0.927     0.053     2.277     2.360
   172   1 H        0.861     0.225     0.987     1.556
   173   1 H        0.927     0.088     1.900     2.155
   174   1 H        0.929     0.074     2.038     2.232
   175   1 H        0.927     0.057     2.232     2.336
   176   1 H        0.927     0.036     2.503     2.474
   177   1 H        0.926     0.047     2.358     2.401
   178   1 H        0.927     0.049     2.328     2.386
   179   1 H        0.927     0.042     2.417     2.431
   180   1 H        0.927     0.064     2.153     2.294
   181   1 H        0.927     0.038     2.477     2.461
   182   1 H        0.927     0.045     2.381     2.413
   183   1 H        0.927     0.051     2.310     2.377
   184   1 H        0.860     0.162     1.324     1.803
   185   1 H        0.860     0.157     1.354     1.823
   186   1 H        0.927     0.049     2.330     2.387
   187   1 H        0.926     0.035     2.519     2.482
   188   1 H        0.927     0.054     2.271     2.356
   189   1 H        0.927     0.045     2.381     2.413
   190   1 H        0.927     0.037     2.484     2.465
   191   1 H        0.861     0.207     1.072     1.622
   192   1 H        0.927     0.083     1.946     2.181
   193   1 H        0.927     0.069     2.093     2.262
   194   1 H        0.927     0.077     2.011     2.218
   195   1 H        0.926     0.068     2.107     2.270
   196   1 H        0.861     0.218     1.018     1.581
   197   1 H        0.927     0.080     1.978     2.200
   198   1 H        1.523     0.165     1.284     1.769
   199   1 H        0.927     0.066     2.134     2.285
   200   1 H        0.926     0.074     2.037     2.232
   201   1 H        0.929     0.052     2.297     2.370
   202   1 H        0.929     0.055     2.256     2.349
   203   1 H        0.929     0.050     2.315     2.379
   204   1 H        0.929     0.045     2.378     2.411
   205   1 H        0.807     0.336     0.622     1.238
   206   1 H        0.980    -0.003     3.106     2.754
   207   1 H        0.980     0.018     2.748     2.590
   208   1 H        0.980    -0.022     3.452     2.903
   209   1 H        0.980     0.001     3.033     2.721
   210   1 H        0.980    -0.005     3.137     2.768
   211   1 H        0.980    -0.004     3.123     2.761
   212   1 H        0.980     0.009     2.903     2.662
   213   1 H        0.980    -0.005     3.132     2.765
   214   1 H        0.980    -0.004     3.116     2.758
   215   1 H        0.980    -0.013     3.283     2.831
   216   1 H        0.980     0.003     3.005     2.709
   217   1 H        0.980     0.016     2.782     2.606
   218   1 H        1.578     0.111     1.676     2.021
   219   1 H        0.980     0.010     2.877     2.650
   220   1 H        0.980    -0.020     3.424     2.892
   221   1 H        0.980     0.013     2.833     2.630
   222   1 H        0.980     0.015     2.800     2.615
   223   1 H        0.980    -0.016     3.335     2.853
   224   1 H        0.860     0.222     1.000     1.566
   225   1 H        0.860     0.224     0.992     1.560
   226   1 H        0.858     0.176     1.239     1.743

 Mol. C6AA /au·bohr⁶  :     435071.273436
 Mol. C8AA /au·bohr⁸  :    9291937.990748
 Mol. α(0) /au        :        995.579379


Wiberg/Mayer (AO) data.
largest (>0.10) Wiberg bond orders for each atom

 ---------------------------------------------------------------------------
     #   Z sym  total        # sym  WBO       # sym  WBO       # sym  WBO
 ---------------------------------------------------------------------------
     1   7 N    2.996 --     2 C    1.009   117 H    0.957   118 H    0.956
     2   6 C    3.987 --     1 N    1.009     3 C    0.990   119 H    0.960
                             5 C    0.954
     3   6 C    3.899 --     4 O    1.901     2 C    0.990   120 H    0.951
     4   8 O    2.041 --     3 C    1.901
     5   6 C    3.993 --     6 C    1.008   121 H    0.973   122 H    0.968
                             2 C    0.954
     6   6 C    3.992 --     5 C    1.008     7 C    1.001   123 H    0.977
                           124 H    0.973
     7   6 C    3.954 --     6 C    1.001     8 N    0.977   125 H    0.964
                           126 H    0.963
     8   7 N    3.451 --     9 C    1.306     7 C    0.977   224 H    0.919
                            10 N    0.103
     9   6 C    3.976 --    10 N    1.335    11 N    1.308     8 N    1.306
    10   7 N    3.418 --     9 C    1.335   127 H    0.924   128 H    0.907
                             8 N    0.103    11 N    0.102
    11   7 N    3.386 --     9 C    1.308   129 H    0.929   130 H    0.900
                            10 N    0.102
    12   7 N    2.975 --    13 C    1.006   131 H    0.959   132 H    0.949
    13   6 C    3.985 --    12 N    1.006    16 C    0.959   133 H    0.954
                            14 C    0.950
    14   6 C    3.950 --    15 O    1.620    19 N    1.308    13 C    0.950
    15   8 O    1.934 --    14 C    1.620    19 N    0.195
    16   6 C    3.956 --    18 C    1.001    17 O    0.986   134 H    0.965
                            13 C    0.959
    17   8 O    1.935 --    16 C    0.986   135 H    0.878
    18   6 C    3.992 --    16 C    1.001   137 H    0.984   138 H    0.983
                           136 H    0.977
    19   7 N    3.465 --    14 C    1.308    20 C    0.972   139 H    0.855
                            15 O    0.195
    20   6 C    3.966 --    19 N    0.972    23 C    0.962   140 H    0.956
                            21 C    0.942
    21   6 C    3.950 --    22 O    1.621    29 N    1.313    20 C    0.942
    22   8 O    1.929 --    21 C    1.621    29 N    0.199
    23   6 C    3.989 --    24 C    1.016    20 C    0.962   141 H    0.954
                           142 H    0.946
    24   6 C    3.891 --    26 C    1.509    25 N    1.176    23 C    1.016
                            27 C    0.119
    25   7 N    3.029 --    27 C    1.651    24 C    1.176    28 N    0.110
    26   6 C    3.900 --    24 C    1.509    28 N    1.224   143 H    0.970
                            27 C    0.112
    27   6 C    3.454 --    25 N    1.651    28 N    1.527    24 C    0.119
                            26 C    0.112
    28   7 N    2.930 --    27 C    1.527    26 C    1.224    25 N    0.110
    29   7 N    3.488 --    21 C    1.313    30 C    0.981   144 H    0.926
                            22 O    0.199
    30   6 C    3.965 --    29 N    0.981    33 C    0.971    31 C    0.941
                           145 H    0.936
    31   6 C    3.948 --    32 O    1.580    39 N    1.333    30 C    0.941
    32   8 O    1.941 --    31 C    1.580    39 N    0.189
    33   6 C    3.986 --    34 C    1.011    30 C    0.971   146 H    0.964
                           147 H    0.946
    34   6 C    3.921 --    36 C    1.571    35 N    1.205    33 C    1.011
    35   7 N    2.976 --    37 C    1.569    34 C    1.205
    36   6 C    3.916 --    34 C    1.571    38 N    1.178   148 H    0.972
                            37 C    0.111
    37   6 C    3.097 --    35 N    1.569    38 N    1.299    36 C    0.111
    38   7 N    3.559 --    37 C    1.299    36 C    1.178   226 H    0.935
    39   7 N    3.470 --    31 C    1.333    40 C    0.968   149 H    0.872
                            32 O    0.189
    40   6 C    3.962 --    43 C    0.976    39 N    0.968   150 H    0.944
                            41 C    0.936
    41   6 C    3.953 --    42 O    1.642    45 N    1.301    40 C    0.936
    42   8 O    1.960 --    41 C    1.642    45 N    0.199
    43   6 C    3.955 --    44 O    1.000    40 C    0.976   152 H    0.968
                           151 H    0.968
    44   8 O    1.941 --    43 C    1.000   153 H    0.881
    45   7 N    3.472 --    41 C    1.301    46 C    0.976   154 H    0.910
                            42 O    0.199
    46   6 C    3.962 --    49 C    0.981    45 N    0.976   155 H    0.943
                            47 C    0.939
    47   6 C    3.950 --    48 O    1.616    56 N    1.319    46 C    0.939
    48   8 O    1.931 --    47 C    1.616    56 N    0.197
    49   6 C    3.977 --    50 C    1.003    46 C    0.981   156 H    0.971
                           157 H    0.958
    50   6 C    3.989 --    49 C    1.003    51 C    0.999   158 H    0.975
                           159 H    0.969
    51   6 C    3.949 --    50 C    0.999    52 N    0.976   160 H    0.963
                           161 H    0.955
    52   7 N    3.473 --    53 C    1.320    51 C    0.976   225 H    0.921
                            54 N    0.102    55 N    0.102
    53   6 C    3.976 --    52 N    1.320    54 N    1.318    55 N    1.308
    54   7 N    3.391 --    53 C    1.318   163 H    0.918   162 H    0.906
                            52 N    0.102
    55   7 N    3.392 --    53 C    1.308   164 H    0.928   165 H    0.919
                            52 N    0.102
    56   7 N    3.478 --    47 C    1.319    57 C    0.977   166 H    0.886
                            48 O    0.197
    57   6 C    3.952 --    56 N    0.977    60 C    0.968   167 H    0.953
                            58 C    0.930
    58   6 C    3.948 --    59 O    1.627    65 N    1.316    57 C    0.930
    59   8 O    1.944 --    58 C    1.627    65 N    0.199
    60   6 C    3.986 --    61 C    1.007   168 H    0.975   169 H    0.971
                            57 C    0.968
    61   6 C    3.928 --    60 C    1.007   171 H    0.967   170 H    0.955
                            62 C    0.913
    62   6 C    3.922 --    63 O    1.502    64 O    1.474    61 C    0.913
    63   8 O    1.813 --    62 C    1.502    64 O    0.212
    64   8 O    1.777 --    62 C    1.474    63 O    0.212
    65   7 N    3.487 --    58 C    1.316    66 C    0.978   172 H    0.903
                            59 O    0.199
    66   6 C    3.962 --    67 C    0.979    65 N    0.978   173 H    0.956
                            69 C    0.937
    67   6 C    3.898 --    68 O    1.890    66 C    0.979   174 H    0.950
    68   8 O    2.036 --    67 C    1.890
    69   6 C    3.987 --    71 C    1.005    70 C    0.994   175 H    0.966
                            66 C    0.937
    70   6 C    3.996 --    72 C    1.017    69 C    0.994   177 H    0.978
                           176 H    0.977
    71   6 C    3.993 --    69 C    1.005   178 H    0.987   179 H    0.976
                           180 H    0.974
    72   6 C    3.993 --    70 C    1.017   182 H    0.985   183 H    0.980
                           181 H    0.976
    73   7 N    2.993 --    74 C    1.024   185 H    0.960   184 H    0.956
    74   6 C    3.984 --    73 N    1.024    77 C    0.967   186 H    0.953
                            75 C    0.946
    75   6 C    3.946 --    76 O    1.651    82 N    1.281    74 C    0.946
    76   8 O    1.954 --    75 C    1.651    82 N    0.190
    77   6 C    3.986 --    78 C    0.999   187 H    0.973   188 H    0.971
                            74 C    0.967
    78   6 C    3.939 --    77 C    0.999   190 H    0.971   189 H    0.967
                            79 C    0.907
    79   6 C    3.925 --    80 O    1.513    81 O    1.486    78 C    0.907
    80   8 O    1.798 --    79 C    1.513    81 O    0.217
    81   8 O    1.760 --    79 C    1.486    80 O    0.217
    82   7 N    3.453 --    75 C    1.281    83 C    0.980   191 H    0.928
                            76 O    0.190
    83   6 C    3.964 --    86 C    0.981    82 N    0.980   192 H    0.956
                            84 C    0.942
    84   6 C    3.947 --    85 O    1.571    87 N    1.337    83 C    0.942
    85   8 O    1.933 --    84 C    1.571    87 N    0.191
    86   6 C    3.983 --   193 H    0.984   195 H    0.983    83 C    0.981
                           194 H    0.981
    87   7 N    3.507 --    84 C    1.337    88 C    0.970   196 H    0.922
                            85 O    0.191
    88   6 C    3.964 --    89 C    0.985    87 N    0.970   197 H    0.952
                            91 C    0.940
    89   6 C    3.833 --    90 O    1.883    88 C    0.985   198 H    0.768
                           111 H    0.121
    90   8 O    2.017 --    89 C    1.883
    91   6 C    3.987 --    92 C    1.010   199 H    0.969   200 H    0.966
                            88 C    0.940
    92   6 C    3.988 --    94 C    1.415    93 C    1.406    91 C    1.010
    93   6 C    3.992 --    95 C    1.447    92 C    1.406   201 H    0.971
                            96 C    0.110
    94   6 C    3.990 --    96 C    1.430    92 C    1.415   202 H    0.970
                            95 C    0.112
    95   6 C    3.989 --    93 C    1.447    97 C    1.371   203 H    0.970
                            94 C    0.112
    96   6 C    3.988 --    94 C    1.430    97 C    1.382   204 H    0.971
                            93 C    0.110
    97   6 C    3.933 --    96 C    1.382    95 C    1.371    98 O    1.059
    98   8 O    2.083 --    97 C    1.059   205 H    0.867
    99   1 H    1.000 --   206 H    0.987
   100   1 H    1.000 --   207 H    0.963
   101   1 H    0.999 --   208 H    0.969
   102   1 H    1.000 --   209 H    0.977
   103   1 H    1.000 --   210 H    0.983
   104   1 H    1.000 --   211 H    0.979
   105   1 H    1.000 --   212 H    0.976
   106   1 H    1.000 --   213 H    0.980
   107   1 H    1.000 --   214 H    0.993
   108   1 H    1.000 --   215 H    0.977
   109   1 H    1.000 --   216 H    0.986
   110   1 H    1.000 --   217 H    0.930
   111   1 H    0.999 --   218 H    0.829    89 C    0.121
   112   1 H    1.000 --   219 H    0.988
   113   1 H    1.000 --   220 H    0.951
   114   1 H    1.000 --   221 H    0.948
   115   1 H    1.000 --   222 H    0.945
   116   1 H    1.000 --   223 H    0.946
   117   1 H    0.974 --     1 N    0.957
   118   1 H    0.971 --     1 N    0.956
   119   1 H    0.996 --     2 C    0.960
   120   1 H    0.996 --     3 C    0.951
   121   1 H    0.996 --     5 C    0.973
   122   1 H    0.996 --     5 C    0.968
   123   1 H    0.997 --     6 C    0.977
   124   1 H    0.995 --     6 C    0.973
   125   1 H    0.993 --     7 C    0.964
   126   1 H    0.994 --     7 C    0.963
   127   1 H    0.945 --    10 N    0.924
   128   1 H    0.939 --    10 N    0.907
   129   1 H    0.948 --    11 N    0.929
   130   1 H    0.940 --    11 N    0.900
   131   1 H    0.977 --    12 N    0.959
   132   1 H    0.971 --    12 N    0.949
   133   1 H    0.998 --    13 C    0.954
   134   1 H    0.997 --    16 C    0.965
   135   1 H    0.893 --    17 O    0.878
   136   1 H    0.996 --    18 C    0.977
   137   1 H    0.998 --    18 C    0.984
   138   1 H    0.996 --    18 C    0.983
   139   1 H    0.947 --    19 N    0.855
   140   1 H    0.992 --    20 C    0.956
   141   1 H    0.993 --    23 C    0.954
   142   1 H    0.990 --    23 C    0.946
   143   1 H    0.996 --    26 C    0.970
   144   1 H    0.959 --    29 N    0.926
   145   1 H    0.991 --    30 C    0.936
   146   1 H    0.991 --    33 C    0.964
   147   1 H    0.992 --    33 C    0.946
   148   1 H    0.998 --    36 C    0.972
   149   1 H    0.941 --    39 N    0.872
   150   1 H    0.991 --    40 C    0.944
   151   1 H    0.997 --    43 C    0.968
   152   1 H    0.993 --    43 C    0.968
   153   1 H    0.900 --    44 O    0.881
   154   1 H    0.952 --    45 N    0.910
   155   1 H    0.991 --    46 C    0.943
   156   1 H    0.994 --    49 C    0.971
   157   1 H    0.993 --    49 C    0.958
   158   1 H    0.995 --    50 C    0.975
   159   1 H    0.993 --    50 C    0.969
   160   1 H    0.990 --    51 C    0.963
   161   1 H    0.992 --    51 C    0.955
   162   1 H    0.939 --    54 N    0.906
   163   1 H    0.936 --    54 N    0.918
   164   1 H    0.947 --    55 N    0.928
   165   1 H    0.937 --    55 N    0.919
   166   1 H    0.950 --    56 N    0.886
   167   1 H    0.990 --    57 C    0.953
   168   1 H    0.996 --    60 C    0.975
   169   1 H    0.997 --    60 C    0.971
   170   1 H    0.995 --    61 C    0.955
   171   1 H    0.996 --    61 C    0.967
   172   1 H    0.949 --    65 N    0.903
   173   1 H    0.992 --    66 C    0.956
   174   1 H    0.994 --    67 C    0.950
   175   1 H    0.997 --    69 C    0.966
   176   1 H    0.999 --    70 C    0.977
   177   1 H    0.998 --    70 C    0.978
   178   1 H    0.998 --    71 C    0.987
   179   1 H    0.998 --    71 C    0.976
   180   1 H    0.995 --    71 C    0.974
   181   1 H    0.999 --    72 C    0.976
   182   1 H    0.997 --    72 C    0.985
   183   1 H    0.997 --    72 C    0.980
   184   1 H    0.972 --    73 N    0.956
   185   1 H    0.975 --    73 N    0.960
   186   1 H    0.997 --    74 C    0.953
   187   1 H    0.997 --    77 C    0.973
   188   1 H    0.996 --    77 C    0.971
   189   1 H    0.997 --    78 C    0.967
   190   1 H    0.997 --    78 C    0.971
   191   1 H    0.957 --    82 N    0.928
   192   1 H    0.993 --    83 C    0.956
   193   1 H    0.995 --    86 C    0.984
   194   1 H    0.994 --    86 C    0.981
   195   1 H    0.995 --    86 C    0.983
   196   1 H    0.952 --    87 N    0.922
   197   1 H    0.994 --    88 C    0.952
   198   1 H    0.972 --    89 C    0.768   218 H    0.146
   199   1 H    0.995 --    91 C    0.969
   200   1 H    0.994 --    91 C    0.966
   201   1 H    0.997 --    93 C    0.971
   202   1 H    0.997 --    94 C    0.970
   203   1 H    0.997 --    95 C    0.970
   204   1 H    0.998 --    96 C    0.971
   205   1 H    0.887 --    98 O    0.867
   206   1 H    1.000 --    99 H    0.987
   207   1 H    1.000 --   100 H    0.963
   208   1 H    0.999 --   101 H    0.969
   209   1 H    1.000 --   102 H    0.977
   210   1 H    1.000 --   103 H    0.983
   211   1 H    1.000 --   104 H    0.979
   212   1 H    1.000 --   105 H    0.976
   213   1 H    1.000 --   106 H    0.980
   214   1 H    1.000 --   107 H    0.993
   215   1 H    1.000 --   108 H    0.977
   216   1 H    1.000 --   109 H    0.986
   217   1 H    1.000 --   110 H    0.930
   218   1 H    0.988 --   111 H    0.829   198 H    0.146
   219   1 H    1.000 --   112 H    0.988
   220   1 H    1.000 --   113 H    0.951
   221   1 H    1.000 --   114 H    0.948
   222   1 H    1.000 --   115 H    0.945
   223   1 H    1.000 --   116 H    0.946
   224   1 H    0.951 --     8 N    0.919
   225   1 H    0.950 --    52 N    0.921
   226   1 H    0.969 --    38 N    0.935
 ---------------------------------------------------------------------------

Topologies differ in total number of bonds
Writing topology from bond orders to xtbtopo.mol

molecular dipole:
                 x           y           z       tot (Debye)
 q only:       -0.644      -4.912       1.560
   full:       -0.521      -4.957       3.019      14.811
molecular quadrupole (traceless):
                xx          xy          yy          xz          yz          zz
 q only:      375.754    1507.527    -133.555    -498.151     -55.784    -242.200
  q+dip:      336.348    1528.621    -157.137    -909.904     -32.853    -179.210
   full:      328.246    1530.888    -151.432    -910.575     -33.691    -176.814


           -------------------------------------------------
          | TOTAL ENERGY             -324.583309250794 Eh   |
          | GRADIENT NORM               1.258868900323 Eh/α |
          | HOMO-LUMO GAP               0.051745743398 eV   |
           -------------------------------------------------
########################################################################
[WARNING] Runtime exception occurred
-2- restart_readRestart: Dimension missmatch in restart file.
-1- restart_readRestart: Number of electron missmatch in restart file.
########################################################################

------------------------------------------------------------------------
 * finished run on 2025/05/05 at 17:06:51.837     
------------------------------------------------------------------------
 total:
 * wall-time:     0 d,  0 h,  0 min,  1.706 sec
 *  cpu-time:     0 d,  0 h,  0 min, 50.311 sec
 * ratio c/w:    29.488 speedup
 SCF:
 * wall-time:     0 d,  0 h,  0 min,  1.685 sec
 *  cpu-time:     0 d,  0 h,  0 min, 49.786 sec
 * ratio c/w:    29.542 speedup

