      -----------------------------------------------------------      
     |                   =====================                   |     
     |                           x T B                           |     
     |                   =====================                   |     
     |                         S. Grimme                         |     
     |          Mulliken Center for Theoretical Chemistry        |     
     |                    University of Bonn                     |     
      -----------------------------------------------------------      

   * xtb version 6.7.1 (edcfbbe) compiled by 'conda@afd1a870197c' on 2025-04-11

   xtb is free software: you can redistribute it and/or modify it under
   the terms of the GNU Lesser General Public License as published by
   the Free Software Foundation, either version 3 of the License, or
   (at your option) any later version.
   
   xtb is distributed in the hope that it will be useful,
   but WITHOUT ANY WARRANTY; without even the implied warranty of
   MERCHANTABILITY or FITNESS FOR A PARTICULAR PURPOSE.  See the
   GNU Lesser General Public License for more details.
   
   Cite this work as:
   * C. Bannwarth, E. Caldeweyher, S. Ehlert, A. Hansen, P. Pracht,
     J. Seibert, S. Spicher, S. Grimme, WIREs Comput. Mol. Sci., 2020, 11,
     e01493. DOI: 10.1002/wcms.1493
   
   for GFN2-xTB:
   * C. Bannwarth, S. Ehlert and S. Grimme., J. Chem. Theory Comput., 2019,
     15, 1652-1671. DOI: 10.1021/acs.jctc.8b01176
   for GFN1-xTB:
   * S. Grimme, C. Bannwarth, P. Shushkov, J. Chem. Theory Comput., 2017,
     13, 1989-2009. DOI: 10.1021/acs.jctc.7b00118
   for GFN0-xTB:
   * P. Pracht, E. Caldeweyher, S. Ehlert, S. Grimme, ChemRxiv, 2019, preprint.
     DOI: 10.26434/chemrxiv.8326202.v1
   for GFN-FF:
   * S. Spicher and S. Grimme, Angew. Chem. Int. Ed., 2020, 59, 15665-15673.
     DOI: 10.1002/anie.202004239
   
   for ALPB and GBSA implicit solvation:
   * S. Ehlert, M. Stahn, S. Spicher, S. Grimme, J. Chem. Theory Comput.,
     2021, 17, 4250-4261. DOI: 10.1021/acs.jctc.1c00471
   
   for ddCOSMO and CPCM-X implicit solvation:
   * M. Stahn, S. Ehlert, S. Grimme, J. Phys. Chem. A,
     2023, XX, XXXX-XXXX. DOI: 10.1021/acs.jpca.3c04382
   
   for DFT-D4:
   * E. Caldeweyher, C. Bannwarth and S. Grimme, J. Chem. Phys., 2017,
     147, 034112. DOI: 10.1063/1.4993215
   * E. Caldeweyher, S. Ehlert, A. Hansen, H. Neugebauer, S. Spicher,
     C. Bannwarth and S. Grimme, J. Chem. Phys., 2019, 150, 154122.
     DOI: 10.1063/1.5090222
   * E. Caldeweyher, J.-M. Mewes, S. Ehlert and S. Grimme, Phys. Chem. Chem. Phys.
     2020, 22, 8499-8512. DOI: 10.1039/D0CP00502A
   
   for sTDA-xTB:
   * S. Grimme and C. Bannwarth, J. Chem. Phys., 2016, 145, 054103.
     DOI: 10.1063/1.4959605
   
   in the mass-spec context:
   * V. Asgeirsson, C. Bauer and S. Grimme, Chem. Sci., 2017, 8, 4879.
     DOI: 10.1039/c7sc00601b
   * J. Koopman and S. Grimme, ACS Omega 2019, 4, 12, 15120-15133.
     DOI: 10.1021/acsomega.9b02011
   
   for metadynamics refer to:
   * S. Grimme, J. Chem. Theory Comput., 2019, 155, 2847-2862
     DOI: 10.1021/acs.jctc.9b00143
   
   for SPH calculations refer to:
   * S. Spicher and S. Grimme, J. Chem. Theory Comput., 2021, 17, 1701-1714
     DOI: 10.1021/acs.jctc.0c01306
   
   for ONIOM refer to:
   * C. Plett, A. Katbashev, S. Ehlert, S. Grimme, M. Bursch,
     Phys. Chem. Chem. Phys., 2023, 25, 17860-17868. DOI: 10.1039/D3CP02178E
   
   for DIPRO refer to:
   * J. Kohn, N. Gildemeister, S. Grimme, D. Fazzi, A. Hansen,
     J. Chem. Phys., 2023, just accepted.
   
   for PTB refer to:
   * S. Grimme, M. Mueller, A. Hansen, J. Chem. Phys., 2023, 158, 124111.
     DOI: 10.1063/5.0137838
   
   with help from (in alphabetical order)
   P. Atkinson, C. Bannwarth, F. Bohle, G. Brandenburg, E. Caldeweyher
   M. Checinski, S. Dohm, S. Ehlert, S. Ehrlich, I. Gerasimov, C. Hölzer
   A. Katbashev, J. Kohn, J. Koopman, C. Lavigne, S. Lehtola, F. März, M. Müller,
   F. Musil, H. Neugebauer, J. Pisarek, C. Plett, P. Pracht, F. Pultar,
   J. Seibert, P. Shushkov, S. Spicher, M. Stahn, M. Steiner, T. Strunk,
   J. Stückrath, T. Rose, and J. Unsleber
   
 * started run on 2025/05/05 at 16:39:05.047     
   ID    Z sym.   atoms
    1    7 N      1, 5, 13, 19, 28, 36, 44, 52, 60, 66, 73, 79, 82, 83, 91,
                  92, 99, 111, 118
    2    6 C      2, 3, 6, 7, 9-12, 14-18, 20, 21, 23-25, 29, 30, 32, 33, 35,
                  37, 38, 40-43, 45, 46, 48-51, 53, 54, 56-59, 61-65, 67, 68,
                  70-72, 74, 75, 77, 78, 80, 81, 84, 85, 87-90, 93, 94, 96,
                  98, 100, 101, 103-109, 112, 113, 115-117, 119, 120, 122
    3    8 O      4, 8, 22, 26, 27, 31, 39, 47, 55, 69, 76, 86, 95, 97, 102,
                  110, 114, 121
    4   16 S      34
    5    1 H      123-292

           -------------------------------------------------
          |                Calculation Setup                |
           -------------------------------------------------

          program call               : xtb /tmp/tmpkl5hag64/HIE/input.xyz --alpb ether --chrg 1 --input /tmp/tmpkl5hag64/HIE/constraints.inp --gfn 2
          hostname                   : fedora
          coordinate file            : /tmp/tmpkl5hag64/HIE/input.xyz
          omp threads                :                    32


molecular fragmentation (1/2 indicates fragments):
111111111111111111111111111111111111111111122222222222222222222222222222
222222222222222222222222222222222222222222222222222222222222222222222222
211111111111111111111111111111111111111112222222222222222222222222222222
222222222222222222222222222222222222222222222222222222222222222222222222
2222
# atoms in fragment 1/2:    83   209
 fragment masses (1/2) :      616.73     1149.70
CMA distance (Bohr)    :  12.606
constraining FC (au)   :  0.0500

           -------------------------------------------------
          |                 G F N 2 - x T B                 |
           -------------------------------------------------

        Reference                      10.1021/acs.jctc.8b01176
      * Hamiltonian:
        H0-scaling (s, p, d)           1.850000    2.230000    2.230000
        zeta-weighting                 0.500000
      * Dispersion:
        s8                             2.700000
        a1                             0.520000
        a2                             5.000000
        s9                             5.000000
      * Repulsion:
        kExp                           1.500000    1.000000
        rExp                           1.000000
      * Coulomb:
        alpha                          2.000000
        third order                    shell-resolved
        anisotropic                    true
        a3                             3.000000
        a5                             4.000000
        cn-shift                       1.200000
        cn-exp                         4.000000
        max-rad                        5.000000

      * Solvation model:               ALPB
        Solvent                        ether
        Parameter file                 internal GFN2-xTB/ALPB
        Dielectric constant                4.3300E+00
        Reference state                gsolv [1 M gas/solution]
        Free energy shift                  4.9534E-03 Eh       3.1083E+00 kcal/mol
        Temperature                        2.9815E+02 K
        Density                            7.1300E-01 kg/L
        Solvent mass                       7.4120E+01 g/mol
        Interaction kernel             P16
        Born radius scaling (c1)           1.5847E+00
        Born radii integrator          GBOBC
        Born offset                        0.0000E+00 a0       0.0000E+00 AA
        H-bond correction              true
        Ion screening                  false
        Surface tension                    1.0000E-05 Eh       1.5569E+01 dyn/cm
        Grid points                               230 per atom

          ...................................................
          :                      SETUP                      :
          :.................................................:
          :  # basis functions                 664          :
          :  # atomic orbitals                 663          :
          :  # shells                          415          :
          :  # electrons                       714          :
          :  max. iterations                   250          :
          :  Hamiltonian                  GFN2-xTB          :
          :  restarted?                      false          :
          :  GBSA solvation                   true          :
          :  PC potential                    false          :
          :  electronic temp.          300.0000000     K    :
          :  accuracy                    1.0000000          :
          :  -> integral cutoff          0.2500000E+02      :
          :  -> integral neglect         0.1000000E-07      :
          :  -> SCF convergence          0.1000000E-05 Eh   :
          :  -> wf. convergence          0.1000000E-03 e    :
          :  Broyden damping             0.4000000          :
          :  net charge                          1          :
          :  unpaired electrons                  0          :
          ...................................................

 iter      E             dE          RMSdq      gap      omega  full diag
   1   -401.4239106 -0.401424E+03  0.426E+00    0.10       0.0  T
   2   -400.9744875  0.449423E+00  0.313E+00    0.18       1.0  T
   3   -402.2529038 -0.127842E+01  0.243E+00    0.32       1.0  T
   4   -402.9500460 -0.697142E+00  0.162E+00    0.12       1.0  T
   5   -402.9689300 -0.188840E-01  0.144E+00    0.09       1.0  T
   6   -402.4492397  0.519690E+00  0.159E+00    0.03       1.0  T
   7   -403.2015293 -0.752290E+00  0.953E-01    0.07       1.0  T
   8   -402.9950522  0.206477E+00  0.180E+00    0.11       1.0  T
   9   -403.1828649 -0.187813E+00  0.948E-01    0.03       1.0  T
  10   -403.1997070 -0.168421E-01  0.879E-01    0.05       1.0  T
  11   -403.4918208 -0.292114E+00  0.511E-01    0.04       1.0  T
  12   -402.8628560  0.628965E+00  0.109E+00    0.07       1.0  T
  13   -403.3197450 -0.456889E+00  0.887E-01    0.01       1.0  T
  14   -403.3244512 -0.470625E-02  0.754E-01    0.11       1.0  T
  15   -403.4571411 -0.132690E+00  0.531E-01    0.05       1.0  T
  16   -403.4461043  0.110368E-01  0.551E-01    0.04       1.0  T
  17   -403.4630318 -0.169275E-01  0.466E-01    0.02       1.0  T
  18   -403.4458585  0.171733E-01  0.522E-01    0.04       1.0  T
  19   -403.4708232 -0.249647E-01  0.479E-01    0.02       1.0  T
  20   -403.5006486 -0.298254E-01  0.404E-01    0.01       1.0  T
  21   -403.5379502 -0.373016E-01  0.296E-01    0.01       1.0  T
  22   -403.5202052  0.177450E-01  0.322E-01    0.04       1.0  T
  23   -403.5589292 -0.387240E-01  0.174E-01    0.01       1.0  T
  24   -403.5727970 -0.138679E-01  0.743E-02    0.01       1.0  T
  25   -403.4836971  0.890999E-01  0.431E-01    0.00       1.0  T
  26   -403.5715218 -0.878246E-01  0.943E-02    0.00       1.0  T
  27   -403.5686149  0.290682E-02  0.108E-01    0.01       1.0  T
  28   -403.5728397 -0.422473E-02  0.690E-02    0.00       1.0  T
  29   -403.5743970 -0.155728E-02  0.452E-02    0.00       1.0  T
  30   -403.5744542 -0.572161E-04  0.444E-02    0.01       1.0  T
  31   -403.5753871 -0.932953E-03  0.104E-02    0.00       1.0  T
  32   -403.5754376 -0.505096E-04  0.323E-03    0.00       1.8  T
  33   -403.5754248  0.128656E-04  0.551E-03    0.00       1.1  T
  34   -403.5754359 -0.111570E-04  0.343E-03    0.00       1.7  T
  35   -403.5754385 -0.258210E-05  0.250E-03    0.00       2.3  T
  36   -403.5754411 -0.260106E-05  0.922E-04    0.00       6.3  T
  37   -403.5754415 -0.368605E-06  0.449E-04    0.00      13.0  T
  38   -403.5754414  0.327993E-07  0.496E-04    0.00      11.8  T

   *** convergence criteria satisfied after 38 iterations ***

         #    Occupation            Energy/Eh            Energy/eV
      -------------------------------------------------------------
         1        2.0000           -0.7721800             -21.0121
       ...           ...                  ...                  ...
       351        1.9459           -0.3845453             -10.4640
       352        1.9240           -0.3842112             -10.4549
       353        1.9236           -0.3842059             -10.4548
       354        1.8646           -0.3836323             -10.4392
       355        1.8235           -0.3833598             -10.4318
       356        1.6295           -0.3825483             -10.4097
       357        1.0698           -0.3812739             -10.3750 (HOMO)
       358        0.9893           -0.3811208             -10.3708 (LUMO)
       359        0.9201           -0.3809888             -10.3672
       360                         -0.3392026              -9.2302
       361                         -0.2979596              -8.1079
       362                         -0.2941544              -8.0043
       ...                                ...                  ...
       663                          1.1340326              30.8586
      -------------------------------------------------------------
                  HL-Gap            0.0001531 Eh            0.0042 eV
             Fermi-level           -0.3811410 Eh          -10.3714 eV

 SCC (total)                   0 d,  0 h,  0 min,  2.334 sec
 SCC setup                      ...        0 min,  0.005 sec (  0.234%)
 Dispersion                     ...        0 min,  0.013 sec (  0.569%)
 classical contributions        ...        0 min,  0.001 sec (  0.029%)
 integral evaluation            ...        0 min,  0.026 sec (  1.100%)
 iterations                     ...        0 min,  2.169 sec ( 92.932%)
 molecular gradient             ...        0 min,  0.117 sec (  5.001%)
 printout                       ...        0 min,  0.003 sec (  0.134%)

         :::::::::::::::::::::::::::::::::::::::::::::::::::::
         ::                     SUMMARY                     ::
         :::::::::::::::::::::::::::::::::::::::::::::::::::::
         :: total energy            -396.284067688199 Eh    ::
         :: total w/o Gsasa/hb      -396.183984793499 Eh    ::
         :: gradient norm              1.395740079332 Eh/a0 ::
         :: HOMO-LUMO gap              0.004166258629 eV    ::
         ::.................................................::
         :: SCC energy              -403.539363222046 Eh    ::
         :: -> isotropic ES            0.861251512463 Eh    ::
         :: -> anisotropic ES          0.096530683688 Eh    ::
         :: -> anisotropic XC          0.279681729135 Eh    ::
         :: -> dispersion             -0.359981056031 Eh    ::
         :: -> Gsolv                  -0.231428337616 Eh    ::
         ::    -> Gelec               -0.131345442917 Eh    ::
         ::    -> Gsasa               -0.086891620953 Eh    ::
         ::    -> Ghb                 -0.018144711324 Eh    ::
         ::    -> Gshift               0.004953437577 Eh    ::
         :: repulsion energy           7.255295533847 Eh    ::
         :: add. restraining           0.000000000000 Eh    ::
         :: total charge               1.000000000000 e     ::
         :::::::::::::::::::::::::::::::::::::::::::::::::::::

           -------------------------------------------------
          |                Property Printout                |
           -------------------------------------------------

    * Orbital Energies and Occupations

         #    Occupation            Energy/Eh            Energy/eV
      -------------------------------------------------------------
         1        2.0000           -0.7721800             -21.0121
       ...           ...                  ...                  ...
       345        2.0000           -0.3978257             -10.8254
       346        2.0000           -0.3962316             -10.7820
       347        2.0000           -0.3956045             -10.7649
       348        1.9999           -0.3904294             -10.6241
       349        1.9574           -0.3847771             -10.4703
       350        1.9523           -0.3846682             -10.4674
       351        1.9459           -0.3845453             -10.4640
       352        1.9240           -0.3842112             -10.4549
       353        1.9236           -0.3842059             -10.4548
       354        1.8646           -0.3836323             -10.4392
       355        1.8235           -0.3833598             -10.4318
       356        1.6295           -0.3825483             -10.4097
       357        1.0698           -0.3812739             -10.3750 (HOMO)
       358        0.9893           -0.3811208             -10.3708 (LUMO)
       359        0.9201           -0.3809888             -10.3672
       360                         -0.3392026              -9.2302
       361                         -0.2979596              -8.1079
       362                         -0.2941544              -8.0043
       363                         -0.2869880              -7.8093
       364                         -0.2581933              -7.0258
       365                         -0.2558042              -6.9608
       366                         -0.2548451              -6.9347
       367                         -0.2443427              -6.6489
       368                         -0.2419665              -6.5842
       ...                                ...                  ...
       663                          1.1340326              30.8586
      -------------------------------------------------------------
                  HL-Gap            0.0001531 Eh            0.0042 eV
             Fermi-level           -0.3811410 Eh          -10.3714 eV

     #   Z          covCN         q      C6AA      α(0)
     1   7 N        2.628    -0.352    29.079     8.009
     2   6 C        3.740    -0.020    21.012     6.540
     3   6 C        2.755     0.274    22.366     7.744
     4   8 O        0.859    -0.489    23.542     6.505
     5   7 N        2.689    -0.160    24.468     7.347
     6   6 C        3.800     0.030    20.077     6.380
     7   6 C        2.752     0.272    22.409     7.752
     8   8 O        0.858    -0.486    23.486     6.497
     9   6 C        3.812    -0.078    21.986     6.674
    10   6 C        3.043     0.007    27.819     8.651
    11   6 C        3.023     0.018    27.588     8.616
    12   6 C        3.105    -0.024    28.466     8.742
    13   7 N        1.911    -0.271    27.886     7.829
    14   6 C        3.067     0.064    26.496     8.440
    15   6 C        2.909    -0.031    28.777     8.796
    16   6 C        2.907    -0.032    28.788     8.798
    17   6 C        2.914    -0.040    28.992     8.829
    18   6 C        2.921    -0.036    28.886     8.814
    19   7 N        2.695    -0.152    24.288     7.320
    20   6 C        3.797     0.021    20.229     6.404
    21   6 C        2.764     0.271    22.422     7.755
    22   8 O        0.858    -0.485    23.450     6.493
    23   6 C        3.811    -0.061    21.657     6.624
    24   6 C        3.807    -0.079    22.008     6.678
    25   6 C        2.688     0.378    20.597     7.427
    26   8 O        0.857    -0.542    24.746     6.670
    27   8 O        0.857    -0.538    24.643     6.656
    28   7 N        2.688    -0.152    24.296     7.321
    29   6 C        3.798     0.013    20.364     6.425
    30   6 C        2.753     0.265    22.537     7.774
    31   8 O        0.858    -0.497    23.723     6.530
    32   6 C        3.814    -0.077    21.955     6.669
    33   6 C        3.795    -0.030    21.121     6.544
    34  16 S        1.951    -0.142   147.019    20.408
    35   6 C        3.751    -0.070    21.903     6.674
    36   7 N        2.691    -0.161    24.480     7.348
    37   6 C        3.793     0.025    20.161     6.394
    38   6 C        2.768     0.191    23.922     8.010
    39   8 O        0.856    -0.335    20.424     6.059
    40   6 C        3.816    -0.079    21.990     6.674
    41   6 C        3.852    -0.014    20.782     6.484
    42   6 C        3.760    -0.115    22.748     6.799
    43   6 C        3.763    -0.122    22.880     6.818
    44   7 N        2.627    -0.346    28.906     7.985
    45   6 C        3.782     0.027    20.144     6.393
    46   6 C        2.762     0.195    23.839     7.996
    47   8 O        0.856    -0.362    20.928     6.133
    48   6 C        3.850    -0.020    20.895     6.502
    49   6 C        3.807    -0.069    21.807     6.648
    50   6 C        3.759    -0.112    22.683     6.790
    51   6 C        3.757    -0.108    22.612     6.780
    52   7 N        2.638    -0.335    28.633     7.947
    53   6 C        3.788     0.041    19.896     6.353
    54   6 C        2.763     0.268    22.468     7.762
    55   8 O        0.859    -0.480    23.342     6.478
    56   6 C        3.811    -0.070    21.831     6.651
    57   6 C        3.040     0.004    27.891     8.662
    58   6 C        3.022     0.022    27.495     8.601
    59   6 C        3.108    -0.026    28.503     8.747
    60   7 N        1.914    -0.241    27.150     7.726
    61   6 C        3.068     0.067    26.429     8.430
    62   6 C        2.911    -0.027    28.687     8.783
    63   6 C        2.909    -0.023    28.584     8.767
    64   6 C        2.916    -0.041    29.008     8.832
    65   6 C        2.923    -0.035    28.883     8.813
    66   7 N        2.694    -0.159    24.438     7.342
    67   6 C        3.799     0.014    20.347     6.422
    68   6 C        2.769     0.269    22.464     7.762
    69   8 O        0.859    -0.511    24.036     6.573
    70   6 C        3.852    -0.019    20.883     6.500
    71   6 C        3.758    -0.123    22.912     6.824
    72   6 C        3.756    -0.126    22.965     6.833
    73   7 N        2.688    -0.160    24.464     7.346
    74   6 C        3.804     0.018    20.264     6.409
    75   6 C        2.755     0.268    22.473     7.763
    76   8 O        0.858    -0.499    23.772     6.537
    77   6 C        3.809    -0.077    21.955     6.670
    78   6 C        3.084     0.061    26.543     8.446
    79   7 N        1.990    -0.258    27.520     7.780
    80   6 C        3.056    -0.027    28.623     8.774
    81   6 C        2.105     0.046    29.699     8.805
    82   7 N        2.837    -0.056    22.313     7.016
    83   7 N        2.690    -0.168    24.634     7.371
    84   6 C        3.806     0.018    20.265     6.409
    85   6 C        2.758     0.272    22.395     7.749
    86   8 O        0.858    -0.482    23.400     6.486
    87   6 C        3.809    -0.074    21.911     6.663
    88   6 C        3.804    -0.089    22.188     6.706
    89   6 C        3.803    -0.089    22.189     6.706
    90   6 C        3.733    -0.050    21.558     6.627
    91   7 N        3.486    -0.157    24.395     7.336
    92   7 N        2.705    -0.155    24.352     7.329
    93   6 C        3.790     0.015    20.342     6.423
    94   6 C        2.760     0.190    23.937     8.012
    95   8 O        0.856    -0.357    20.844     6.121
    96   6 C        3.735     0.105    18.933     6.210
    97   8 O        1.652    -0.470    22.265     6.370
    98   6 C        3.759    -0.145    23.355     6.890
    99   7 N        2.632    -0.337    28.672     7.953
   100   6 C        3.790     0.035    19.997     6.369
   101   6 C        2.756     0.266    22.503     7.768
   102   8 O        0.858    -0.485    23.448     6.492
   103   6 C        3.815    -0.077    21.967     6.671
   104   6 C        2.962    -0.002    28.077     8.691
   105   6 C        2.928    -0.047    29.166     8.857
   106   6 C        2.926    -0.047    29.175     8.858
   107   6 C        2.918    -0.070    29.734     8.942
   108   6 C        2.917    -0.061    29.511     8.908
   109   6 C        2.848     0.152    24.707     8.147
   110   8 O        1.661    -0.411    21.065     6.196
   111   7 N        2.691    -0.171    24.700     7.381
   112   6 C        3.797     0.013    20.362     6.425
   113   6 C        2.759     0.268    22.467     7.762
   114   8 O        0.859    -0.492    23.606     6.514
   115   6 C        3.853    -0.015    20.812     6.488
   116   6 C        3.761    -0.119    22.828     6.811
   117   6 C        3.761    -0.119    22.823     6.810
   118   7 N        2.692    -0.158    24.416     7.339
   119   6 C        3.796     0.032    20.049     6.376
   120   6 C        2.768     0.169    24.356     8.083
   121   8 O        0.856    -0.374    21.160     6.167
   122   6 C        3.762    -0.118    22.799     6.806
   123   1 H        0.980     0.002     3.022     2.716
   124   1 H        0.980     0.002     3.007     2.710
   125   1 H        0.980     0.010     2.885     2.654
   126   1 H        0.980    -0.014     3.310     2.843
   127   1 H        0.980    -0.018     3.384     2.875
   128   1 H        0.980     0.042     2.416     2.429
   129   1 H        0.980     0.012     2.854     2.640
   130   1 H        0.980    -0.013     3.284     2.832
   131   1 H        0.980     0.019     2.733     2.583
   132   1 H        0.980    -0.004     3.124     2.762
   133   1 H        0.980     0.001     3.031     2.721
   134   1 H        0.980     0.000     3.047     2.728
   135   1 H        0.980     0.004     2.979     2.697
   136   1 H        0.980     0.003     2.999     2.706
   137   1 H        0.980    -0.013     3.282     2.831
   138   1 H        0.980    -0.007     3.180     2.787
   139   1 H        0.980     0.001     3.024     2.717
   140   1 H        0.980    -0.001     3.065     2.736
   141   1 H        0.980    -0.014     3.298     2.838
   142   1 H        0.980     0.004     2.979     2.697
   143   1 H        0.980     0.004     2.982     2.699
   144   1 H        0.980    -0.002     3.089     2.746
   145   1 H        0.980    -0.009     3.201     2.796
   146   1 H        0.860     0.179     1.222     1.732
   147   1 H        0.860     0.162     1.322     1.801
   148   1 H        0.927     0.045     2.381     2.413
   149   1 H        0.927     0.079     1.989     2.205
   150   1 H        0.861     0.203     1.091     1.636
   151   1 H        0.927     0.078     1.996     2.209
   152   1 H        0.927     0.089     1.889     2.149
   153   1 H        0.927     0.071     2.074     2.252
   154   1 H        0.929     0.042     2.425     2.435
   155   1 H        0.929     0.053     2.286     2.364
   156   1 H        0.929     0.065     2.137     2.286
   157   1 H        0.929     0.052     2.290     2.367
   158   1 H        0.929     0.057     2.235     2.338
   159   1 H        0.861     0.227     0.980     1.550
   160   1 H        0.927     0.081     1.966     2.192
   161   1 H        0.927     0.056     2.243     2.342
   162   1 H        0.927     0.069     2.102     2.267
   163   1 H        0.927     0.071     2.072     2.251
   164   1 H        0.927     0.066     2.133     2.284
   165   1 H        0.861     0.208     1.066     1.617
   166   1 H        0.927     0.101     1.776     2.084
   167   1 H        0.927     0.073     2.053     2.240
   168   1 H        0.927     0.067     2.122     2.278
   169   1 H        0.927     0.081     1.973     2.196
   170   1 H        0.927     0.073     2.057     2.243
   171   1 H        0.927     0.075     2.032     2.229
   172   1 H        0.927     0.067     2.113     2.273
   173   1 H        0.927     0.064     2.152     2.294
   174   1 H        0.861     0.236     0.940     1.518
   175   1 H        0.927     0.091     1.868     2.137
   176   1 H        0.929     0.071     2.070     2.250
   177   1 H        0.927     0.063     2.160     2.298
   178   1 H        0.927     0.068     2.105     2.269
   179   1 H        0.927     0.042     2.423     2.434
   180   1 H        0.927     0.045     2.380     2.412
   181   1 H        0.927     0.037     2.483     2.464
   182   1 H        0.927     0.035     2.520     2.483
   183   1 H        0.927     0.047     2.362     2.403
   184   1 H        0.927     0.045     2.384     2.414
   185   1 H        0.926     0.041     2.438     2.442
   186   1 H        0.860     0.167     1.293     1.782
   187   1 H        0.860     0.173     1.253     1.753
   188   1 H        0.926     0.058     2.224     2.332
   189   1 H        0.929     0.068     2.102     2.267
   190   1 H        0.926     0.054     2.269     2.355
   191   1 H        0.927     0.040     2.447     2.446
   192   1 H        0.927     0.052     2.291     2.367
   193   1 H        0.927     0.043     2.406     2.426
   194   1 H        0.927     0.047     2.357     2.401
   195   1 H        0.927     0.048     2.343     2.394
   196   1 H        0.927     0.038     2.481     2.463
   197   1 H        0.927     0.041     2.434     2.440
   198   1 H        0.926     0.036     2.505     2.475
   199   1 H        0.860     0.163     1.318     1.798
   200   1 H        0.860     0.174     1.249     1.751
   201   1 H        0.926     0.022     2.702     2.571
   202   1 H        0.927     0.085     1.926     2.170
   203   1 H        0.927     0.066     2.129     2.282
   204   1 H        0.929     0.045     2.387     2.416
   205   1 H        0.929     0.052     2.289     2.366
   206   1 H        0.929     0.077     2.013     2.218
   207   1 H        0.929     0.058     2.221     2.330
   208   1 H        0.929     0.061     2.182     2.310
   209   1 H        0.861     0.201     1.103     1.645
   210   1 H        0.927     0.090     1.878     2.143
   211   1 H        0.927     0.043     2.403     2.424
   212   1 H        0.927     0.051     2.309     2.376
   213   1 H        0.927     0.043     2.405     2.425
   214   1 H        0.927     0.054     2.272     2.357
   215   1 H        0.927     0.052     2.300     2.372
   216   1 H        0.926     0.053     2.280     2.361
   217   1 H        0.927     0.043     2.413     2.429
   218   1 H        0.861     0.232     0.957     1.532
   219   1 H        0.927     0.095     1.827     2.114
   220   1 H        0.927     0.090     1.878     2.143
   221   1 H        0.927     0.095     1.830     2.116
   222   1 H        0.929     0.067     2.114     2.273
   223   1 H        0.861     0.233     0.953     1.529
   224   1 H        0.927     0.073     2.051     2.239
   225   1 H        0.927     0.061     2.187     2.313
   226   1 H        0.927     0.069     2.097     2.265
   227   1 H        0.927     0.056     2.243     2.342
   228   1 H        0.927     0.065     2.141     2.288
   229   1 H        0.927     0.095     1.831     2.116
   230   1 H        0.927     0.061     2.187     2.312
   231   1 H        0.926     0.116     1.646     2.006
   232   1 H        0.927     0.119     1.619     1.990
   233   1 H        0.861     0.217     1.023     1.584
   234   1 H        0.927     0.098     1.804     2.101
   235   1 H        0.929     0.086     1.918     2.166
   236   1 H        0.927     0.081     1.966     2.193
   237   1 H        0.804     0.332     0.632     1.249
   238   1 H        0.927     0.055     2.264     2.353
   239   1 H        0.927     0.062     2.173     2.305
   240   1 H        0.927     0.078     1.996     2.209
   241   1 H        0.860     0.166     1.296     1.783
   242   1 H        0.860     0.174     1.249     1.751
   243   1 H        0.927     0.037     2.487     2.466
   244   1 H        0.927     0.068     2.105     2.269
   245   1 H        0.927     0.066     2.126     2.280
   246   1 H        0.929     0.050     2.314     2.379
   247   1 H        0.929     0.054     2.274     2.358
   248   1 H        0.929     0.058     2.226     2.333
   249   1 H        0.929     0.062     2.170     2.303
   250   1 H        0.808     0.340     0.613     1.229
   251   1 H        0.861     0.220     1.010     1.574
   252   1 H        0.927     0.075     2.028     2.227
   253   1 H        0.927     0.049     2.338     2.391
   254   1 H        0.927     0.049     2.337     2.391
   255   1 H        0.927     0.036     2.508     2.477
   256   1 H        0.927     0.054     2.274     2.358
   257   1 H        0.927     0.050     2.314     2.379
   258   1 H        0.927     0.051     2.306     2.375
   259   1 H        0.927     0.042     2.425     2.435
   260   1 H        0.861     0.215     1.032     1.591
   261   1 H        0.927     0.107     1.721     2.051
   262   1 H        0.929     0.102     1.764     2.077
   263   1 H        0.927     0.061     2.188     2.313
   264   1 H        0.927     0.084     1.939     2.178
   265   1 H        0.927     0.061     2.191     2.315
   266   1 H        0.980     0.001     3.039     2.724
   267   1 H        0.980    -0.002     3.088     2.746
   268   1 H        0.980    -0.009     3.207     2.798
   269   1 H        0.980     0.013     2.826     2.627
   270   1 H        0.980     0.021     2.717     2.576
   271   1 H        0.980    -0.016     3.337     2.855
   272   1 H        0.980    -0.010     3.222     2.805
   273   1 H        0.980     0.011     2.870     2.647
   274   1 H        0.980    -0.016     3.349     2.860
   275   1 H        0.980     0.005     2.968     2.692
   276   1 H        0.980    -0.002     3.081     2.743
   277   1 H        0.980    -0.001     3.071     2.739
   278   1 H        0.980    -0.004     3.115     2.758
   279   1 H        0.980    -0.001     3.061     2.734
   280   1 H        0.980     0.012     2.856     2.641
   281   1 H        0.980     0.008     2.922     2.671
   282   1 H        0.980     0.002     3.023     2.717
   283   1 H        0.980    -0.000     3.053     2.730
   284   1 H        0.980     0.016     2.790     2.610
   285   1 H        0.980    -0.008     3.186     2.789
   286   1 H        0.980    -0.012     3.259     2.821
   287   1 H        0.980    -0.009     3.212     2.801
   288   1 H        0.980     0.030     2.578     2.509
   289   1 H        0.860     0.281     0.772     1.376
   290   1 H        0.860     0.304     0.701     1.311
   291   1 H        0.860     0.301     0.711     1.321
   292   1 H        0.858     0.194     1.137     1.670

 Mol. C6AA /au·bohr⁶  :     726355.614816
 Mol. C8AA /au·bohr⁸  :   15873989.080881
 Mol. α(0) /au        :       1297.452751


Wiberg/Mayer (AO) data.
largest (>0.10) Wiberg bond orders for each atom

 ---------------------------------------------------------------------------
     #   Z sym  total        # sym  WBO       # sym  WBO       # sym  WBO
 ---------------------------------------------------------------------------
     1   7 N    2.969 --     2 C    1.015   147 H    0.959   146 H    0.954
     2   6 C    3.977 --     1 N    1.015   149 H    0.972     3 C    0.958
                           148 H    0.957
     3   6 C    3.946 --     4 O    1.634     5 N    1.301     2 C    0.958
     4   8 O    1.938 --     3 C    1.634     5 N    0.195
     5   7 N    3.470 --     3 C    1.301     6 C    0.980   150 H    0.928
                             4 O    0.195
     6   6 C    3.948 --     5 N    0.980     9 C    0.958   151 H    0.950
                             7 C    0.930
     7   6 C    3.950 --     8 O    1.634    19 N    1.312     6 C    0.930
     8   8 O    1.943 --     7 C    1.634    19 N    0.198
     9   6 C    3.979 --    10 C    1.025   153 H    0.970     6 C    0.958
                           152 H    0.943
    10   6 C    3.696 --    11 C    1.418    12 C    1.151     9 C    1.025
    11   6 C    3.959 --    10 C    1.418    13 N    1.389   154 H    0.971
    12   6 C    3.956 --    15 C    1.381    14 C    1.237    10 C    1.151
    13   7 N    2.709 --    11 C    1.389    14 C    1.213
    14   6 C    3.963 --    16 C    1.342    12 C    1.237    13 N    1.213
    15   6 C    3.885 --    17 C    1.395    12 C    1.381   155 H    0.968
    16   6 C    3.880 --    18 C    1.425    14 C    1.342   156 H    0.968
    17   6 C    3.926 --    18 C    1.422    15 C    1.395   157 H    0.973
    18   6 C    3.941 --    16 C    1.425    17 C    1.422   158 H    0.966
    19   7 N    3.482 --     7 C    1.312    20 C    0.982   159 H    0.912
                             8 O    0.198
    20   6 C    3.958 --    19 N    0.982    23 C    0.962   160 H    0.955
                            21 C    0.943
    21   6 C    3.948 --    22 O    1.605    28 N    1.320    20 C    0.943
    22   8 O    1.945 --    21 C    1.605    28 N    0.194
    23   6 C    3.983 --    24 C    1.004   161 H    0.975   162 H    0.972
                            20 C    0.962
    24   6 C    3.853 --    23 C    1.004   163 H    0.966   164 H    0.955
                            25 C    0.873
    25   6 C    3.906 --    26 O    1.514    27 O    1.497    24 C    0.873
    26   8 O    1.777 --    25 C    1.514    27 O    0.221
    27   8 O    1.759 --    25 C    1.497    26 O    0.221
    28   7 N    3.488 --    21 C    1.320    29 C    0.980   165 H    0.926
                            22 O    0.194
    29   6 C    3.956 --    28 N    0.980    32 C    0.969   166 H    0.943
                            30 C    0.938
    30   6 C    3.954 --    31 O    1.622    36 N    1.322    29 C    0.938
    31   8 O    1.939 --    30 C    1.622    36 N    0.203
    32   6 C    3.983 --    33 C    1.000    29 C    0.969   167 H    0.966
                           168 H    0.964
    33   6 C    3.970 --    32 C    1.000    34 S    0.990   170 H    0.969
                           169 H    0.955
    34  16 S    2.082 --    35 C    1.014    33 C    0.990
    35   6 C    3.970 --    34 S    1.014   172 H    0.979   171 H    0.977
                           173 H    0.970
    36   7 N    3.487 --    30 C    1.322    37 C    0.980   174 H    0.895
                            31 O    0.203
    37   6 C    3.968 --    38 C    0.985    36 N    0.980    40 C    0.951
                           175 H    0.946
    38   6 C    3.910 --    39 O    1.913    37 C    0.985   176 H    0.948
    39   8 O    2.065 --    38 C    1.913
    40   6 C    3.984 --    41 C    0.989   178 H    0.971   177 H    0.970
                            37 C    0.951
    41   6 C    3.995 --    43 C    1.009    42 C    1.007    40 C    0.989
                           179 H    0.970
    42   6 C    3.996 --    41 C    1.007   182 H    0.986   181 H    0.984
                           180 H    0.981
    43   6 C    3.994 --    41 C    1.009   185 H    0.985   184 H    0.985
                           183 H    0.979
    44   7 N    2.964 --    45 C    1.006   186 H    0.958   187 H    0.953
    45   6 C    3.973 --    44 N    1.006    46 C    0.988   188 H    0.950
                            48 C    0.938
    46   6 C    3.899 --    47 O    1.898    45 C    0.988   189 H    0.949
    47   8 O    2.046 --    46 C    1.898
    48   6 C    3.984 --    50 C    1.008    49 C    0.994   190 H    0.949
                            45 C    0.938
    49   6 C    3.994 --    51 C    1.018    48 C    0.994   191 H    0.978
                           192 H    0.978
    50   6 C    3.995 --    48 C    1.008   194 H    0.981   193 H    0.978
                           195 H    0.977
    51   6 C    3.996 --    49 C    1.018   197 H    0.986   198 H    0.983
                           196 H    0.982
    52   7 N    3.003 --    53 C    1.013   199 H    0.955   200 H    0.953
    53   6 C    3.961 --    52 N    1.013   201 H    0.958    56 C    0.948
                            54 C    0.944
    54   6 C    3.948 --    55 O    1.620    66 N    1.312    53 C    0.944
    55   8 O    1.958 --    54 C    1.620    66 N    0.197
    56   6 C    3.977 --    57 C    1.030   203 H    0.966   202 H    0.952
                            53 C    0.948
    57   6 C    3.698 --    58 C    1.406    59 C    1.147    56 C    1.030
    58   6 C    3.957 --    57 C    1.406    60 N    1.402   204 H    0.969
    59   6 C    3.955 --    62 C    1.383    61 C    1.239    57 C    1.147
    60   7 N    2.726 --    58 C    1.402    61 C    1.204
    61   6 C    3.962 --    63 C    1.347    59 C    1.239    60 N    1.204
    62   6 C    3.887 --    64 C    1.395    59 C    1.383   205 H    0.969
    63   6 C    3.879 --    65 C    1.420    61 C    1.347   206 H    0.965
    64   6 C    3.929 --    65 C    1.423    62 C    1.395   207 H    0.973
    65   6 C    3.937 --    64 C    1.423    63 C    1.420   208 H    0.971
    66   7 N    3.487 --    54 C    1.312    67 C    0.971   209 H    0.928
                            55 O    0.197
    67   6 C    3.957 --    66 N    0.971    70 C    0.959   210 H    0.951
                            68 C    0.944
    68   6 C    3.951 --    69 O    1.594    73 N    1.332    67 C    0.944
    69   8 O    1.926 --    68 C    1.594    73 N    0.199
    70   6 C    3.989 --    71 C    1.007    72 C    1.003   211 H    0.971
                            67 C    0.959
    71   6 C    3.992 --    70 C    1.007   214 H    0.982   213 H    0.981
                           212 H    0.976
    72   6 C    3.993 --    70 C    1.003   217 H    0.985   216 H    0.984
                           215 H    0.980
    73   7 N    3.494 --    68 C    1.332    74 C    0.982   218 H    0.898
                            69 O    0.199
    74   6 C    3.958 --    73 N    0.982    75 C    0.954    77 C    0.954
                           219 H    0.935
    75   6 C    3.954 --    76 O    1.609    83 N    1.321    74 C    0.954
    76   8 O    1.932 --    75 C    1.609    83 N    0.195
    77   6 C    3.980 --    78 C    1.016    74 C    0.954   221 H    0.953
                           220 H    0.950
    78   6 C    3.900 --    80 C    1.570    79 N    1.184    77 C    1.016
    79   7 N    3.054 --    81 C    1.614    78 C    1.184
    80   6 C    3.896 --    78 C    1.570    82 N    1.168   222 H    0.963
                            81 C    0.115
    81   6 C    3.148 --    79 N    1.614    82 N    1.326    80 C    0.115
    82   7 N    3.568 --    81 C    1.326    80 C    1.168   292 H    0.928
    83   7 N    3.477 --    75 C    1.321    84 C    0.978   223 H    0.891
                            76 O    0.195
    84   6 C    3.968 --    83 N    0.978    87 C    0.961   224 H    0.951
                            85 C    0.950
    85   6 C    3.951 --    86 O    1.629    92 N    1.299    84 C    0.950
    86   8 O    1.961 --    85 C    1.629    92 N    0.193
    87   6 C    3.987 --    88 C    1.004   225 H    0.976   226 H    0.970
                            84 C    0.961
    88   6 C    3.993 --    89 C    1.007    87 C    1.004   228 H    0.975
                           227 H    0.974
    89   6 C    3.985 --    90 C    1.008    88 C    1.007   230 H    0.967
                           229 H    0.962
    90   6 C    3.907 --    89 C    1.008   232 H    0.968   231 H    0.967
                            91 N    0.944
    91   7 N    3.659 --    90 C    0.944   289 H    0.899   291 H    0.898
                           290 H    0.890
    92   7 N    3.480 --    85 C    1.299    93 C    0.989   233 H    0.915
                            86 O    0.193
    93   6 C    3.966 --    92 N    0.989    94 C    0.971   234 H    0.945
                            96 C    0.927
    94   6 C    3.893 --    95 O    1.887    93 C    0.971   235 H    0.950
    95   8 O    2.049 --    94 C    1.887
    96   6 C    3.951 --    98 C    1.007    97 O    0.996   236 H    0.953
                            93 C    0.927
    97   8 O    1.956 --    96 C    0.996   237 H    0.875
    98   6 C    3.989 --    96 C    1.007   238 H    0.981   240 H    0.979
                           239 H    0.978
    99   7 N    2.972 --   100 C    1.014   241 H    0.957   242 H    0.953
   100   6 C    3.970 --    99 N    1.014   103 C    0.961   243 H    0.949
                           101 C    0.943
   101   6 C    3.946 --   102 O    1.638   111 N    1.302   100 C    0.943
   102   8 O    1.944 --   101 C    1.638   111 N    0.200
   103   6 C    3.986 --   104 C    1.011   244 H    0.974   100 C    0.961
                           245 H    0.957
   104   6 C    3.934 --   106 C    1.396   105 C    1.388   103 C    1.011
   105   6 C    3.982 --   107 C    1.468   104 C    1.388   246 H    0.966
                           108 C    0.100
   106   6 C    3.981 --   108 C    1.458   104 C    1.396   247 H    0.971
   107   6 C    3.961 --   105 C    1.468   109 C    1.338   248 H    0.968
   108   6 C    3.960 --   106 C    1.458   109 C    1.346   249 H    0.969
                           105 C    0.100
   109   6 C    3.904 --   108 C    1.346   107 C    1.338   110 O    1.103
   110   8 O    2.089 --   109 C    1.103   250 H    0.805
   111   7 N    3.473 --   101 C    1.302   112 C    0.979   251 H    0.908
                           102 O    0.200
   112   6 C    3.964 --   111 N    0.979   252 H    0.958   115 C    0.949
                           113 C    0.946
   113   6 C    3.951 --   114 O    1.597   118 N    1.327   112 C    0.946
   114   8 O    1.953 --   113 C    1.597   118 N    0.196
   115   6 C    3.990 --   116 C    1.009   117 C    1.007   253 H    0.970
                           112 C    0.949
   116   6 C    3.994 --   115 C    1.009   254 H    0.986   255 H    0.984
                           256 H    0.979
   117   6 C    3.993 --   115 C    1.007   257 H    0.986   259 H    0.986
                           258 H    0.984
   118   7 N    3.493 --   113 C    1.327   119 C    0.973   260 H    0.921
                           114 O    0.196
   119   6 C    3.962 --   120 C    0.995   118 N    0.973   122 C    0.961
                           261 H    0.934
   120   6 C    3.886 --   121 O    1.882   119 C    0.995   262 H    0.876
   121   8 O    2.032 --   120 C    1.882
   122   6 C    3.982 --   263 H    0.985   265 H    0.980   264 H    0.972
                           119 C    0.961
   123   1 H    1.000 --   266 H    0.984
   124   1 H    1.000 --   267 H    0.996
   125   1 H    1.000 --   268 H    0.971
   126   1 H    1.000 --   269 H    0.984
   127   1 H    1.000 --   270 H    0.973
   128   1 H    0.998 --   271 H    0.918
   129   1 H    1.000 --   272 H    0.987
   130   1 H    1.000 --   273 H    0.956
   131   1 H    1.000 --   274 H    0.938
   132   1 H    1.000 --   275 H    0.994
   133   1 H    1.000 --   276 H    0.981
   134   1 H    1.000 --   277 H    0.978
   135   1 H    1.000 --   278 H    0.994
   136   1 H    1.000 --   279 H    0.981
   137   1 H    1.000 --   280 H    0.975
   138   1 H    1.000 --   281 H    0.988
   139   1 H    0.999 --   282 H    0.977
   140   1 H    0.999 --   283 H    0.970
   141   1 H    1.000 --   284 H    0.960
   142   1 H    1.000 --   285 H    0.956
   143   1 H    0.999 --   286 H    0.933
   144   1 H    1.000 --   287 H    0.948
   145   1 H    1.000 --   288 H    0.878
   146   1 H    0.966 --     1 N    0.954
   147   1 H    0.973 --     1 N    0.959
   148   1 H    0.989 --     2 C    0.957
   149   1 H    0.993 --     2 C    0.972
   150   1 H    0.958 --     5 N    0.928
   151   1 H    0.994 --     6 C    0.950
   152   1 H    0.978 --     9 C    0.943
   153   1 H    0.994 --     9 C    0.970
   154   1 H    0.997 --    11 C    0.971
   155   1 H    0.996 --    15 C    0.968
   156   1 H    0.995 --    16 C    0.968
   157   1 H    0.997 --    17 C    0.973
   158   1 H    0.996 --    18 C    0.966
   159   1 H    0.949 --    19 N    0.912
   160   1 H    0.993 --    20 C    0.955
   161   1 H    0.996 --    23 C    0.975
   162   1 H    0.993 --    23 C    0.972
   163   1 H    0.992 --    24 C    0.966
   164   1 H    0.992 --    24 C    0.955
   165   1 H    0.956 --    28 N    0.926
   166   1 H    0.990 --    29 C    0.943
   167   1 H    0.994 --    32 C    0.966
   168   1 H    0.995 --    32 C    0.964
   169   1 H    0.993 --    33 C    0.955
   170   1 H    0.988 --    33 C    0.969
   171   1 H    0.994 --    35 C    0.977
   172   1 H    0.990 --    35 C    0.979
   173   1 H    0.991 --    35 C    0.970
   174   1 H    0.944 --    36 N    0.895
   175   1 H    0.991 --    37 C    0.946
   176   1 H    0.994 --    38 C    0.948
   177   1 H    0.995 --    40 C    0.970
   178   1 H    0.995 --    40 C    0.971
   179   1 H    0.998 --    41 C    0.970
   180   1 H    0.998 --    42 C    0.981
   181   1 H    0.999 --    42 C    0.984
   182   1 H    0.998 --    42 C    0.986
   183   1 H    0.998 --    43 C    0.979
   184   1 H    0.997 --    43 C    0.985
   185   1 H    0.998 --    43 C    0.985
   186   1 H    0.971 --    44 N    0.958
   187   1 H    0.969 --    44 N    0.953
   188   1 H    0.983 --    45 C    0.950
   189   1 H    0.995 --    46 C    0.949
   190   1 H    0.997 --    48 C    0.949
   191   1 H    0.998 --    49 C    0.978
   192   1 H    0.997 --    49 C    0.978
   193   1 H    0.998 --    50 C    0.978
   194   1 H    0.998 --    50 C    0.981
   195   1 H    0.998 --    50 C    0.977
   196   1 H    0.999 --    51 C    0.982
   197   1 H    0.998 --    51 C    0.986
   198   1 H    0.999 --    51 C    0.983
   199   1 H    0.970 --    52 N    0.955
   200   1 H    0.969 --    52 N    0.953
   201   1 H    0.993 --    53 C    0.958
   202   1 H    0.980 --    56 C    0.952
   203   1 H    0.991 --    56 C    0.966
   204   1 H    0.997 --    58 C    0.969
   205   1 H    0.996 --    62 C    0.969
   206   1 H    0.993 --    63 C    0.965
   207   1 H    0.996 --    64 C    0.973
   208   1 H    0.996 --    65 C    0.971
   209   1 H    0.959 --    66 N    0.928
   210   1 H    0.992 --    67 C    0.951
   211   1 H    0.998 --    70 C    0.971
   212   1 H    0.997 --    71 C    0.976
   213   1 H    0.998 --    71 C    0.981
   214   1 H    0.996 --    71 C    0.982
   215   1 H    0.997 --    72 C    0.980
   216   1 H    0.997 --    72 C    0.984
   217   1 H    0.998 --    72 C    0.985
   218   1 H    0.946 --    73 N    0.898
   219   1 H    0.989 --    74 C    0.935
   220   1 H    0.991 --    77 C    0.950
   221   1 H    0.989 --    77 C    0.953
   222   1 H    0.995 --    80 C    0.963
   223   1 H    0.946 --    83 N    0.891
   224   1 H    0.994 --    84 C    0.951
   225   1 H    0.996 --    87 C    0.976
   226   1 H    0.995 --    87 C    0.970
   227   1 H    0.997 --    88 C    0.974
   228   1 H    0.996 --    88 C    0.975
   229   1 H    0.991 --    89 C    0.962
   230   1 H    0.996 --    89 C    0.967
   231   1 H    0.986 --    90 C    0.967
   232   1 H    0.986 --    90 C    0.968
   233   1 H    0.953 --    92 N    0.915
   234   1 H    0.990 --    93 C    0.945
   235   1 H    0.992 --    94 C    0.950
   236   1 H    0.993 --    96 C    0.953
   237   1 H    0.890 --    97 O    0.875
   238   1 H    0.997 --    98 C    0.981
   239   1 H    0.996 --    98 C    0.978
   240   1 H    0.994 --    98 C    0.979
   241   1 H    0.970 --    99 N    0.957
   242   1 H    0.967 --    99 N    0.953
   243   1 H    0.984 --   100 C    0.949
   244   1 H    0.994 --   103 C    0.974
   245   1 H    0.990 --   103 C    0.957
   246   1 H    0.997 --   105 C    0.966
   247   1 H    0.997 --   106 C    0.971
   248   1 H    0.996 --   107 C    0.968
   249   1 H    0.996 --   108 C    0.969
   250   1 H    0.884 --   110 O    0.805
   251   1 H    0.952 --   111 N    0.908
   252   1 H    0.994 --   112 C    0.958
   253   1 H    0.998 --   115 C    0.970
   254   1 H    0.998 --   116 C    0.986
   255   1 H    0.999 --   116 C    0.984
   256   1 H    0.996 --   116 C    0.979
   257   1 H    0.997 --   117 C    0.986
   258   1 H    0.997 --   117 C    0.984
   259   1 H    0.998 --   117 C    0.986
   260   1 H    0.953 --   118 N    0.921
   261   1 H    0.988 --   119 C    0.934
   262   1 H    0.989 --   120 C    0.876
   263   1 H    0.996 --   122 C    0.985
   264   1 H    0.993 --   122 C    0.972
   265   1 H    0.996 --   122 C    0.980
   266   1 H    1.000 --   123 H    0.984
   267   1 H    1.000 --   124 H    0.996
   268   1 H    1.000 --   125 H    0.971
   269   1 H    1.000 --   126 H    0.984
   270   1 H    1.000 --   127 H    0.973
   271   1 H    1.000 --   128 H    0.918
   272   1 H    1.000 --   129 H    0.987
   273   1 H    1.000 --   130 H    0.956
   274   1 H    1.000 --   131 H    0.938
   275   1 H    1.000 --   132 H    0.994
   276   1 H    1.000 --   133 H    0.981
   277   1 H    1.000 --   134 H    0.978
   278   1 H    1.000 --   135 H    0.994
   279   1 H    1.000 --   136 H    0.981
   280   1 H    1.000 --   137 H    0.975
   281   1 H    1.000 --   138 H    0.988
   282   1 H    1.000 --   139 H    0.977
   283   1 H    1.000 --   140 H    0.970
   284   1 H    1.000 --   141 H    0.960
   285   1 H    1.000 --   142 H    0.956
   286   1 H    0.999 --   143 H    0.933
   287   1 H    1.000 --   144 H    0.948
   288   1 H    0.999 --   145 H    0.878
   289   1 H    0.921 --    91 N    0.899
   290   1 H    0.907 --    91 N    0.890
   291   1 H    0.910 --    91 N    0.898
   292   1 H    0.962 --    82 N    0.928
 ---------------------------------------------------------------------------

Topologies differ in total number of bonds
Writing topology from bond orders to xtbtopo.mol

molecular dipole:
                 x           y           z       tot (Debye)
 q only:      -53.287      -0.147      47.213
   full:      -51.954       0.289      47.261     178.519
molecular quadrupole (traceless):
                xx          xy          yy          xz          yz          zz
 q only:     1734.837     -46.904   -2728.971   -3660.697     -15.603     994.134
  q+dip:     1613.253     -79.094   -2674.033   -3546.159      12.463    1060.780
   full:     1605.399     -85.865   -2672.684   -3546.038      15.793    1067.285


           -------------------------------------------------
          | TOTAL ENERGY             -396.284067688199 Eh   |
          | GRADIENT NORM               1.395740079332 Eh/α |
          | HOMO-LUMO GAP               0.004166258629 eV   |
           -------------------------------------------------
########################################################################
[WARNING] Runtime exception occurred
-3- restart_readRestart: Dimension missmatch in restart file.
-2- restart_readRestart: Multiplicity missmatch in restart file.
-1- restart_readRestart: Number of electron missmatch in restart file.
########################################################################

------------------------------------------------------------------------
 * finished run on 2025/05/05 at 16:39:07.418     
------------------------------------------------------------------------
 total:
 * wall-time:     0 d,  0 h,  0 min,  2.372 sec
 *  cpu-time:     0 d,  0 h,  1 min, 11.481 sec
 * ratio c/w:    30.139 speedup
 SCF:
 * wall-time:     0 d,  0 h,  0 min,  2.337 sec
 *  cpu-time:     0 d,  0 h,  1 min, 10.540 sec
 * ratio c/w:    30.188 speedup

