      -----------------------------------------------------------      
     |                   =====================                   |     
     |                           x T B                           |     
     |                   =====================                   |     
     |                         S. Grimme                         |     
     |          Mulliken Center for Theoretical Chemistry        |     
     |                    University of Bonn                     |     
      -----------------------------------------------------------      

   * xtb version 6.7.1 (edcfbbe) compiled by 'conda@afd1a870197c' on 2025-04-11

   xtb is free software: you can redistribute it and/or modify it under
   the terms of the GNU Lesser General Public License as published by
   the Free Software Foundation, either version 3 of the License, or
   (at your option) any later version.
   
   xtb is distributed in the hope that it will be useful,
   but WITHOUT ANY WARRANTY; without even the implied warranty of
   MERCHANTABILITY or FITNESS FOR A PARTICULAR PURPOSE.  See the
   GNU Lesser General Public License for more details.
   
   Cite this work as:
   * C. Bannwarth, E. Caldeweyher, S. Ehlert, A. Hansen, P. Pracht,
     J. Seibert, S. Spicher, S. Grimme, WIREs Comput. Mol. Sci., 2020, 11,
     e01493. DOI: 10.1002/wcms.1493
   
   for GFN2-xTB:
   * C. Bannwarth, S. Ehlert and S. Grimme., J. Chem. Theory Comput., 2019,
     15, 1652-1671. DOI: 10.1021/acs.jctc.8b01176
   for GFN1-xTB:
   * S. Grimme, C. Bannwarth, P. Shushkov, J. Chem. Theory Comput., 2017,
     13, 1989-2009. DOI: 10.1021/acs.jctc.7b00118
   for GFN0-xTB:
   * P. Pracht, E. Caldeweyher, S. Ehlert, S. Grimme, ChemRxiv, 2019, preprint.
     DOI: 10.26434/chemrxiv.8326202.v1
   for GFN-FF:
   * S. Spicher and S. Grimme, Angew. Chem. Int. Ed., 2020, 59, 15665-15673.
     DOI: 10.1002/anie.202004239
   
   for ALPB and GBSA implicit solvation:
   * S. Ehlert, M. Stahn, S. Spicher, S. Grimme, J. Chem. Theory Comput.,
     2021, 17, 4250-4261. DOI: 10.1021/acs.jctc.1c00471
   
   for ddCOSMO and CPCM-X implicit solvation:
   * M. Stahn, S. Ehlert, S. Grimme, J. Phys. Chem. A,
     2023, XX, XXXX-XXXX. DOI: 10.1021/acs.jpca.3c04382
   
   for DFT-D4:
   * E. Caldeweyher, C. Bannwarth and S. Grimme, J. Chem. Phys., 2017,
     147, 034112. DOI: 10.1063/1.4993215
   * E. Caldeweyher, S. Ehlert, A. Hansen, H. Neugebauer, S. Spicher,
     C. Bannwarth and S. Grimme, J. Chem. Phys., 2019, 150, 154122.
     DOI: 10.1063/1.5090222
   * E. Caldeweyher, J.-M. Mewes, S. Ehlert and S. Grimme, Phys. Chem. Chem. Phys.
     2020, 22, 8499-8512. DOI: 10.1039/D0CP00502A
   
   for sTDA-xTB:
   * S. Grimme and C. Bannwarth, J. Chem. Phys., 2016, 145, 054103.
     DOI: 10.1063/1.4959605
   
   in the mass-spec context:
   * V. Asgeirsson, C. Bauer and S. Grimme, Chem. Sci., 2017, 8, 4879.
     DOI: 10.1039/c7sc00601b
   * J. Koopman and S. Grimme, ACS Omega 2019, 4, 12, 15120-15133.
     DOI: 10.1021/acsomega.9b02011
   
   for metadynamics refer to:
   * S. Grimme, J. Chem. Theory Comput., 2019, 155, 2847-2862
     DOI: 10.1021/acs.jctc.9b00143
   
   for SPH calculations refer to:
   * S. Spicher and S. Grimme, J. Chem. Theory Comput., 2021, 17, 1701-1714
     DOI: 10.1021/acs.jctc.0c01306
   
   for ONIOM refer to:
   * C. Plett, A. Katbashev, S. Ehlert, S. Grimme, M. Bursch,
     Phys. Chem. Chem. Phys., 2023, 25, 17860-17868. DOI: 10.1039/D3CP02178E
   
   for DIPRO refer to:
   * J. Kohn, N. Gildemeister, S. Grimme, D. Fazzi, A. Hansen,
     J. Chem. Phys., 2023, just accepted.
   
   for PTB refer to:
   * S. Grimme, M. Mueller, A. Hansen, J. Chem. Phys., 2023, 158, 124111.
     DOI: 10.1063/5.0137838
   
   with help from (in alphabetical order)
   P. Atkinson, C. Bannwarth, F. Bohle, G. Brandenburg, E. Caldeweyher
   M. Checinski, S. Dohm, S. Ehlert, S. Ehrlich, I. Gerasimov, C. Hölzer
   A. Katbashev, J. Kohn, J. Koopman, C. Lavigne, S. Lehtola, F. März, M. Müller,
   F. Musil, H. Neugebauer, J. Pisarek, C. Plett, P. Pracht, F. Pultar,
   J. Seibert, P. Shushkov, S. Spicher, M. Stahn, M. Steiner, T. Strunk,
   J. Stückrath, T. Rose, and J. Unsleber
   
 * started run on 2025/05/05 at 17:06:48.680     
   ID    Z sym.   atoms
    1    7 N      1, 8, 10-12, 19, 25, 28, 29, 35, 38, 39, 45, 52, 54-56, 65,
                  73, 82, 87
    2    6 C      2, 3, 5-7, 9, 13, 14, 16, 18, 20, 21, 23, 24, 26, 27, 30,
                  31, 33, 34, 36, 37, 40, 41, 43, 46, 47, 49-51, 53, 57, 58,
                  60-62, 66, 67, 69-72, 74, 75, 77-79, 83, 84, 86, 88, 89,
                  91-97
    3    8 O      4, 15, 17, 22, 32, 42, 44, 48, 59, 63, 64, 68, 76, 80, 81,
                  85, 90, 98
    4    1 H      99-226

           -------------------------------------------------
          |                Calculation Setup                |
           -------------------------------------------------

          program call               : xtb /tmp/tmpkxeg2kbf/HID/input.xyz --alpb ether --chrg 0 --input /tmp/tmpkxeg2kbf/HID/constraints.inp --gfn 2
          hostname                   : fedora
          coordinate file            : /tmp/tmpkxeg2kbf/HID/input.xyz
          omp threads                :                    32


molecular fragmentation (1/2 indicates fragments):
111111111112222222222222222222222222222222222222222222222222222222222222
222222222222222222222222222222222222222222221111111111111122222222222222
222222222222222222222222222222222222222222222222222222222222222222222222
2222222122
# atoms in fragment 1/2:    26   200
 fragment masses (1/2) :      159.21     1260.57
CMA distance (Bohr)    :  16.768
constraining FC (au)   :  0.0500
########################################################################
[WARNING] Please study the warnings concerning your input carefully
-1- readin_getIntValue: could not parse 'S'
########################################################################

           -------------------------------------------------
          |                 G F N 2 - x T B                 |
           -------------------------------------------------

        Reference                      10.1021/acs.jctc.8b01176
      * Hamiltonian:
        H0-scaling (s, p, d)           1.850000    2.230000    2.230000
        zeta-weighting                 0.500000
      * Dispersion:
        s8                             2.700000
        a1                             0.520000
        a2                             5.000000
        s9                             5.000000
      * Repulsion:
        kExp                           1.500000    1.000000
        rExp                           1.000000
      * Coulomb:
        alpha                          2.000000
        third order                    shell-resolved
        anisotropic                    true
        a3                             3.000000
        a5                             4.000000
        cn-shift                       1.200000
        cn-exp                         4.000000
        max-rad                        5.000000

      * Solvation model:               ALPB
        Solvent                        ether
        Parameter file                 internal GFN2-xTB/ALPB
        Dielectric constant                4.3300E+00
        Reference state                gsolv [1 M gas/solution]
        Free energy shift                  4.9534E-03 Eh       3.1083E+00 kcal/mol
        Temperature                        2.9815E+02 K
        Density                            7.1300E-01 kg/L
        Solvent mass                       7.4120E+01 g/mol
        Interaction kernel             P16
        Born radius scaling (c1)           1.5847E+00
        Born radii integrator          GBOBC
        Born offset                        0.0000E+00 a0       0.0000E+00 AA
        H-bond correction              true
        Ion screening                  false
        Surface tension                    1.0000E-05 Eh       1.5569E+01 dyn/cm
        Grid points                               230 per atom

          ...................................................
          :                      SETUP                      :
          :.................................................:
          :  # basis functions                 520          :
          :  # atomic orbitals                 520          :
          :  # shells                          324          :
          :  # electrons                       577          :
          :  max. iterations                   250          :
          :  Hamiltonian                  GFN2-xTB          :
          :  restarted?                      false          :
          :  GBSA solvation                   true          :
          :  PC potential                    false          :
          :  electronic temp.          300.0000000     K    :
          :  accuracy                    1.0000000          :
          :  -> integral cutoff          0.2500000E+02      :
          :  -> integral neglect         0.1000000E-07      :
          :  -> SCF convergence          0.1000000E-05 Eh   :
          :  -> wf. convergence          0.1000000E-03 e    :
          :  Broyden damping             0.4000000          :
          :  net charge                          0          :
          :  unpaired electrons                  0          :
          ...................................................

 iter      E             dE          RMSdq      gap      omega  full diag
   1   -328.1230102 -0.328123E+03  0.439E+00    0.01       0.0  T
   2   -325.7110819  0.241193E+01  0.377E+00    0.07       1.0  T
   3   -328.6010024 -0.288992E+01  0.251E+00    1.49       1.0  T
   4   -329.3356145 -0.734612E+00  0.166E+00    0.66       1.0  T
   5   -329.4395407 -0.103926E+00  0.167E+00    0.20       1.0  T
   6   -329.8053810 -0.365840E+00  0.108E+00    0.02       1.0  T
   7   -329.8561134 -0.507324E-01  0.112E+00    0.57       1.0  T
   8   -329.8338803  0.222331E-01  0.965E-01    0.41       1.0  T
   9   -329.7243823  0.109498E+00  0.947E-01    0.46       1.0  T
  10   -329.9063726 -0.181990E+00  0.838E-01    0.47       1.0  T
  11   -330.0600342 -0.153662E+00  0.601E-01    0.17       1.0  T
  12   -330.0736482 -0.136139E-01  0.542E-01    0.15       1.0  T
  13   -330.0819610 -0.831289E-02  0.454E-01    0.11       1.0  T
  14   -329.8727917  0.209169E+00  0.852E-01    0.00       1.0  T
  15   -330.0002230 -0.127431E+00  0.528E-01    0.15       1.0  T
  16   -330.1054462 -0.105223E+00  0.194E-01    0.03       1.0  T
  17   -330.0301920  0.752542E-01  0.463E-01    0.02       1.0  T
  18   -330.0970930 -0.669009E-01  0.246E-01    0.11       1.0  T
  19   -330.1000279 -0.293494E-02  0.210E-01    0.02       1.0  T
  20   -330.1123638 -0.123359E-01  0.151E-01    0.05       1.0  T
  21   -330.1084065  0.395727E-02  0.157E-01    0.07       1.0  T
  22   -330.1066384  0.176809E-02  0.168E-01    0.08       1.0  T
  23   -330.1183776 -0.117391E-01  0.618E-02    0.06       1.0  T
  24   -330.1191568 -0.779216E-03  0.458E-02    0.05       1.0  T
  25   -330.1197375 -0.580759E-03  0.279E-02    0.05       1.0  T
  26   -330.1193126  0.424924E-03  0.392E-02    0.05       1.0  T
  27   -330.1197413 -0.428697E-03  0.271E-02    0.05       1.0  T
  28   -330.1199095 -0.168145E-03  0.154E-02    0.05       1.0  T
  29   -330.1199414 -0.319243E-04  0.109E-02    0.05       1.0  T
  30   -330.1199733 -0.319050E-04  0.581E-03    0.05       1.1  T
  31   -330.1199834 -0.100799E-04  0.262E-03    0.05       2.5  T
  32   -330.1199862 -0.280723E-05  0.508E-04    0.05      13.1  T
  33   -330.1199861  0.516912E-07  0.634E-04    0.05      10.5  T
  34   -330.1199863 -0.135251E-06  0.125E-04    0.05      53.2  T

   *** convergence criteria satisfied after 34 iterations ***

         #    Occupation            Energy/Eh            Energy/eV
      -------------------------------------------------------------
         1        2.0000           -0.7417174             -20.1832
       ...           ...                  ...                  ...
       283        1.9999           -0.3707520             -10.0887
       284        1.9997           -0.3691594             -10.0453
       285        1.9811           -0.3651614              -9.9365
       286        1.8498           -0.3630944              -9.8803
       287        1.8410           -0.3630334              -9.8786
       288        1.7782           -0.3626680              -9.8687
       289        1.1443           -0.3607632              -9.8169 (HOMO)
       290        0.4060           -0.3589312              -9.7670 (LUMO)
       291                         -0.2966913              -8.0734
       292                         -0.2902262              -7.8975
       293                         -0.2875798              -7.8254
       294                         -0.2523847              -6.8677
       ...                                ...                  ...
       520                          1.3581207              36.9563
      -------------------------------------------------------------
                  HL-Gap            0.0018320 Eh            0.0499 eV
             Fermi-level           -0.3604343 Eh           -9.8079 eV

 SCC (total)                   0 d,  0 h,  0 min,  1.410 sec
 SCC setup                      ...        0 min,  0.003 sec (  0.233%)
 Dispersion                     ...        0 min,  0.008 sec (  0.560%)
 classical contributions        ...        0 min,  0.000 sec (  0.033%)
 integral evaluation            ...        0 min,  0.013 sec (  0.895%)
 iterations                     ...        0 min,  1.323 sec ( 93.825%)
 molecular gradient             ...        0 min,  0.057 sec (  4.025%)
 printout                       ...        0 min,  0.006 sec (  0.427%)

         :::::::::::::::::::::::::::::::::::::::::::::::::::::
         ::                     SUMMARY                     ::
         :::::::::::::::::::::::::::::::::::::::::::::::::::::
         :: total energy            -324.556265462356 Eh    ::
         :: total w/o Gsasa/hb      -324.467647515953 Eh    ::
         :: gradient norm              1.259700950259 Eh/a0 ::
         :: HOMO-LUMO gap              0.049852165644 eV    ::
         ::.................................................::
         :: SCC energy              -330.094740234630 Eh    ::
         :: -> isotropic ES            0.947072112613 Eh    ::
         :: -> anisotropic ES          0.069580774451 Eh    ::
         :: -> anisotropic XC          0.203337344369 Eh    ::
         :: -> dispersion             -0.267008231426 Eh    ::
         :: -> Gsolv                  -0.232264210989 Eh    ::
         ::    -> Gelec               -0.143646264586 Eh    ::
         ::    -> Gsasa               -0.074197242606 Eh    ::
         ::    -> Ghb                 -0.019374141374 Eh    ::
         ::    -> Gshift               0.004953437577 Eh    ::
         :: repulsion energy           5.538474772274 Eh    ::
         :: add. restraining           0.000000000000 Eh    ::
         :: total charge               0.000000000488 e     ::
         :::::::::::::::::::::::::::::::::::::::::::::::::::::

           -------------------------------------------------
          |                Property Printout                |
           -------------------------------------------------

    * Orbital Energies and Occupations

         #    Occupation            Energy/Eh            Energy/eV
      -------------------------------------------------------------
         1        2.0000           -0.7417174             -20.1832
       ...           ...                  ...                  ...
       277        2.0000           -0.3830131             -10.4223
       278        2.0000           -0.3822598             -10.4018
       279        2.0000           -0.3801132             -10.3434
       280        2.0000           -0.3778929             -10.2830
       281        2.0000           -0.3757215             -10.2239
       282        2.0000           -0.3744432             -10.1891
       283        1.9999           -0.3707520             -10.0887
       284        1.9997           -0.3691594             -10.0453
       285        1.9811           -0.3651614              -9.9365
       286        1.8498           -0.3630944              -9.8803
       287        1.8410           -0.3630334              -9.8786
       288        1.7782           -0.3626680              -9.8687
       289        1.1443           -0.3607632              -9.8169 (HOMO)
       290        0.4060           -0.3589312              -9.7670 (LUMO)
       291                         -0.2966913              -8.0734
       292                         -0.2902262              -7.8975
       293                         -0.2875798              -7.8254
       294                         -0.2523847              -6.8677
       295                         -0.2474104              -6.7324
       296                         -0.2439898              -6.6393
       297                         -0.2356208              -6.4116
       298                         -0.2293460              -6.2408
       299                         -0.2272282              -6.1832
       300                         -0.2233439              -6.0775
       ...                                ...                  ...
       520                          1.3581207              36.9563
      -------------------------------------------------------------
                  HL-Gap            0.0018320 Eh            0.0499 eV
             Fermi-level           -0.3604343 Eh           -9.8079 eV

     #   Z          covCN         q      C6AA      α(0)
     1   7 N        2.636    -0.364    29.386     8.051
     2   6 C        3.787     0.032    20.052     6.378
     3   6 C        2.773     0.200    23.744     7.981
     4   8 O        0.856    -0.363    20.948     6.136
     5   6 C        3.816    -0.075    21.912     6.662
     6   6 C        3.806    -0.084    22.096     6.692
     7   6 C        3.739    -0.022    21.051     6.547
     8   7 N        2.699    -0.151    24.273     7.317
     9   6 C        2.735     0.239    23.010     7.854
    10   7 N        2.649    -0.233    26.096     7.587
    11   7 N        2.652    -0.248    26.466     7.641
    12   7 N        2.627    -0.388    30.048     8.141
    13   6 C        3.788     0.019    20.272     6.413
    14   6 C        2.757     0.271    22.414     7.753
    15   8 O        0.859    -0.503    23.847     6.547
    16   6 C        3.730     0.115    18.787     6.187
    17   8 O        1.651    -0.482    22.519     6.406
    18   6 C        3.758    -0.136    23.170     6.863
    19   7 N        2.686    -0.191    25.138     7.446
    20   6 C        3.797     0.024    20.169     6.395
    21   6 C        2.758     0.269    22.459     7.761
    22   8 O        0.858    -0.492    23.615     6.515
    23   6 C        3.811    -0.061    21.672     6.626
    24   6 C        3.074     0.052    26.748     8.480
    25   7 N        1.971    -0.227    26.776     7.674
    26   6 C        3.040     0.003    27.917     8.666
    27   6 C        2.092     0.127    27.800     8.518
    28   7 N        1.964    -0.254    27.439     7.768
    29   7 N        2.688    -0.156    24.372     7.332
    30   6 C        3.800     0.028    20.100     6.383
    31   6 C        2.749     0.267    22.484     7.764
    32   8 O        0.857    -0.507    23.946     6.561
    33   6 C        3.812    -0.080    22.013     6.678
    34   6 C        3.084     0.008    27.741     8.634
    35   7 N        2.837    -0.115    23.509     7.201
    36   6 C        3.050     0.013    27.668     8.627
    37   6 C        2.100    -0.031    31.688     9.095
    38   7 N        1.975    -0.282    28.127     7.865
    39   7 N        2.685    -0.195    25.244     7.462
    40   6 C        3.790     0.011    20.409     6.434
    41   6 C        2.756     0.280    22.261     7.726
    42   8 O        0.860    -0.475    23.247     6.464
    43   6 C        3.683     0.068    19.640     6.346
    44   8 O        1.653    -0.463    22.112     6.348
    45   7 N        2.687    -0.189    25.091     7.440
    46   6 C        3.799     0.016    20.304     6.416
    47   6 C        2.756     0.267    22.488     7.765
    48   8 O        0.859    -0.495    23.677     6.524
    49   6 C        3.809    -0.087    22.147     6.699
    50   6 C        3.804    -0.088    22.178     6.705
    51   6 C        3.740    -0.033    21.239     6.576
    52   7 N        2.692    -0.140    24.039     7.282
    53   6 C        2.734     0.233    23.111     7.871
    54   7 N        2.648    -0.254    26.607     7.661
    55   7 N        2.650    -0.244    26.376     7.628
    56   7 N        2.687    -0.182    24.941     7.417
    57   6 C        3.798     0.014    20.349     6.423
    58   6 C        2.757     0.268    22.471     7.763
    59   8 O        0.859    -0.486    23.470     6.495
    60   6 C        3.808    -0.055    21.555     6.609
    61   6 C        3.809    -0.082    22.054     6.685
    62   6 C        2.689     0.367    20.773     7.459
    63   8 O        0.856    -0.569    25.371     6.753
    64   8 O        0.857    -0.579    25.613     6.785
    65   7 N        2.692    -0.161    24.481     7.348
    66   6 C        3.801     0.024    20.172     6.394
    67   6 C        2.769     0.203    23.679     7.969
    68   8 O        0.856    -0.366    21.009     6.145
    69   6 C        3.859    -0.018    20.863     6.496
    70   6 C        3.809    -0.064    21.728     6.635
    71   6 C        3.760    -0.126    22.961     6.831
    72   6 C        3.758    -0.117    22.794     6.807
    73   7 N        2.628    -0.346    28.922     7.987
    74   6 C        3.784     0.024    20.185     6.400
    75   6 C        2.751     0.265    22.537     7.774
    76   8 O        0.859    -0.483    23.406     6.486
    77   6 C        3.799    -0.069    21.831     6.653
    78   6 C        3.796    -0.088    22.187     6.707
    79   6 C        2.683     0.357    20.934     7.487
    80   8 O        0.856    -0.589    25.854     6.817
    81   8 O        0.856    -0.594    25.960     6.831
    82   7 N        2.688    -0.173    24.735     7.386
    83   6 C        3.792     0.022    20.219     6.404
    84   6 C        2.755     0.261    22.594     7.784
    85   8 O        0.857    -0.513    24.066     6.577
    86   6 C        3.755    -0.135    23.163     6.863
    87   7 N        2.692    -0.144    24.125     7.295
    88   6 C        3.801     0.035    19.980     6.364
    89   6 C        2.777     0.091    25.959     8.345
    90   8 O        0.857    -0.381    21.307     6.189
    91   6 C        3.823    -0.072    21.860     6.653
    92   6 C        2.964    -0.003    28.100     8.695
    93   6 C        2.929    -0.047    29.172     8.858
    94   6 C        2.928    -0.051    29.254     8.870
    95   6 C        2.918    -0.073    29.815     8.954
    96   6 C        2.916    -0.063    29.564     8.916
    97   6 C        2.843     0.148    24.789     8.160
    98   8 O        1.661    -0.438    21.604     6.275
    99   1 H        0.980     0.005     2.958     2.688
   100   1 H        0.980    -0.018     3.371     2.869
   101   1 H        0.980     0.022     2.695     2.565
   102   1 H        0.980     0.000     3.046     2.727
   103   1 H        0.980     0.004     2.977     2.696
   104   1 H        0.980     0.005     2.967     2.691
   105   1 H        0.980    -0.008     3.198     2.794
   106   1 H        0.980     0.006     2.943     2.681
   107   1 H        0.980     0.004     2.979     2.697
   108   1 H        0.980     0.012     2.852     2.639
   109   1 H        0.980    -0.003     3.105     2.754
   110   1 H        0.980     0.015     2.796     2.613
   111   1 H        0.980    -0.027     3.560     2.948
   112   1 H        0.980    -0.010     3.236     2.811
   113   1 H        0.980     0.019     2.743     2.588
   114   1 H        0.980    -0.013     3.282     2.831
   115   1 H        0.980    -0.017     3.353     2.861
   116   1 H        0.980     0.015     2.799     2.614
   117   1 H        0.860     0.162     1.322     1.801
   118   1 H        0.860     0.169     1.278     1.771
   119   1 H        0.927     0.060     2.199     2.319
   120   1 H        0.929     0.066     2.132     2.283
   121   1 H        0.927     0.061     2.183     2.311
   122   1 H        0.927     0.061     2.183     2.311
   123   1 H        0.927     0.057     2.234     2.338
   124   1 H        0.927     0.069     2.091     2.261
   125   1 H        0.926     0.082     1.961     2.190
   126   1 H        0.927     0.073     2.049     2.239
   127   1 H        0.861     0.232     0.957     1.533
   128   1 H        0.861     0.244     0.907     1.492
   129   1 H        0.861     0.235     0.942     1.520
   130   1 H        0.861     0.244     0.905     1.490
   131   1 H        0.860     0.150     1.399     1.853
   132   1 H        0.860     0.169     1.279     1.772
   133   1 H        0.926     0.037     2.484     2.464
   134   1 H        0.927     0.053     2.286     2.365
   135   1 H        0.804     0.326     0.647     1.264
   136   1 H        0.927     0.059     2.205     2.322
   137   1 H        0.927     0.049     2.336     2.390
   138   1 H        0.927     0.062     2.171     2.304
   139   1 H        0.861     0.229     0.969     1.542
   140   1 H        0.926     0.086     1.922     2.168
   141   1 H        0.927     0.073     2.053     2.240
   142   1 H        0.927     0.076     2.020     2.223
   143   1 H        0.929     0.054     2.266     2.354
   144   1 H        0.861     0.206     1.074     1.623
   145   1 H        0.927     0.092     1.862     2.134
   146   1 H        0.927     0.070     2.089     2.260
   147   1 H        0.927     0.076     2.017     2.221
   148   1 H        0.929     0.029     2.605     2.524
   149   1 H        0.861     0.245     0.901     1.487
   150   1 H        0.927     0.097     1.817     2.108
   151   1 H        0.927     0.053     2.277     2.360
   152   1 H        0.927     0.083     1.950     2.184
   153   1 H        0.804     0.316     0.675     1.290
   154   1 H        0.861     0.213     1.043     1.600
   155   1 H        0.927     0.097     1.816     2.107
   156   1 H        0.927     0.078     1.997     2.210
   157   1 H        0.927     0.071     2.070     2.250
   158   1 H        0.927     0.067     2.120     2.277
   159   1 H        0.927     0.076     2.018     2.221
   160   1 H        0.926     0.096     1.817     2.108
   161   1 H        0.926     0.091     1.874     2.141
   162   1 H        0.861     0.245     0.904     1.489
   163   1 H        0.861     0.254     0.867     1.458
   164   1 H        0.861     0.231     0.960     1.535
   165   1 H        0.861     0.257     0.858     1.451
   166   1 H        0.861     0.219     1.013     1.577
   167   1 H        0.927     0.093     1.853     2.129
   168   1 H        0.927     0.052     2.294     2.368
   169   1 H        0.927     0.056     2.250     2.346
   170   1 H        0.927     0.054     2.276     2.359
   171   1 H        0.927     0.054     2.274     2.358
   172   1 H        0.861     0.223     0.996     1.564
   173   1 H        0.927     0.088     1.897     2.154
   174   1 H        0.929     0.074     2.036     2.231
   175   1 H        0.927     0.057     2.236     2.338
   176   1 H        0.927     0.036     2.500     2.472
   177   1 H        0.926     0.047     2.357     2.401
   178   1 H        0.927     0.050     2.326     2.385
   179   1 H        0.927     0.042     2.420     2.433
   180   1 H        0.927     0.064     2.149     2.292
   181   1 H        0.927     0.038     2.475     2.460
   182   1 H        0.927     0.046     2.376     2.410
   183   1 H        0.927     0.051     2.311     2.377
   184   1 H        0.860     0.160     1.335     1.810
   185   1 H        0.860     0.155     1.369     1.833
   186   1 H        0.927     0.048     2.342     2.393
   187   1 H        0.926     0.031     2.573     2.508
   188   1 H        0.927     0.055     2.261     2.351
   189   1 H        0.927     0.046     2.374     2.409
   190   1 H        0.927     0.039     2.467     2.456
   191   1 H        0.861     0.206     1.077     1.625
   192   1 H        0.927     0.084     1.943     2.180
   193   1 H        0.927     0.068     2.102     2.267
   194   1 H        0.927     0.077     2.005     2.214
   195   1 H        0.926     0.068     2.105     2.269
   196   1 H        0.861     0.219     1.014     1.578
   197   1 H        0.927     0.079     1.987     2.204
   198   1 H        1.523     0.165     1.283     1.769
   199   1 H        0.927     0.066     2.133     2.284
   200   1 H        0.926     0.075     2.035     2.231
   201   1 H        0.929     0.052     2.299     2.371
   202   1 H        0.929     0.055     2.260     2.351
   203   1 H        0.929     0.051     2.307     2.375
   204   1 H        0.929     0.046     2.370     2.407
   205   1 H        0.807     0.337     0.619     1.236
   206   1 H        0.980    -0.004     3.118     2.759
   207   1 H        0.980     0.018     2.758     2.595
   208   1 H        0.980    -0.022     3.450     2.902
   209   1 H        0.980     0.001     3.034     2.722
   210   1 H        0.980    -0.005     3.138     2.768
   211   1 H        0.980    -0.005     3.129     2.764
   212   1 H        0.980     0.008     2.916     2.668
   213   1 H        0.980    -0.004     3.127     2.763
   214   1 H        0.980    -0.004     3.117     2.759
   215   1 H        0.980    -0.013     3.280     2.830
   216   1 H        0.980     0.003     3.005     2.709
   217   1 H        0.980     0.016     2.787     2.609
   218   1 H        1.578     0.112     1.668     2.016
   219   1 H        0.980     0.011     2.865     2.645
   220   1 H        0.980    -0.020     3.410     2.886
   221   1 H        0.980     0.014     2.821     2.624
   222   1 H        0.980     0.017     2.778     2.604
   223   1 H        0.980    -0.015     3.313     2.844
   224   1 H        0.860     0.222     1.000     1.567
   225   1 H        0.860     0.221     1.003     1.569
   226   1 H        0.858     0.183     1.200     1.716

 Mol. C6AA /au·bohr⁶  :     435034.556503
 Mol. C8AA /au·bohr⁸  :    9291779.545757
 Mol. α(0) /au        :        995.553525


Wiberg/Mayer (AO) data.
largest (>0.10) Wiberg bond orders for each atom

 ---------------------------------------------------------------------------
     #   Z sym  total        # sym  WBO       # sym  WBO       # sym  WBO
 ---------------------------------------------------------------------------
     1   7 N    2.996 --     2 C    1.009   117 H    0.957   118 H    0.956
     2   6 C    3.987 --     1 N    1.009     3 C    0.990   119 H    0.960
                             5 C    0.954
     3   6 C    3.899 --     4 O    1.901     2 C    0.990   120 H    0.952
     4   8 O    2.041 --     3 C    1.901
     5   6 C    3.993 --     6 C    1.009   121 H    0.973   122 H    0.968
                             2 C    0.954
     6   6 C    3.992 --     5 C    1.009     7 C    1.001   123 H    0.977
                           124 H    0.973
     7   6 C    3.956 --     6 C    1.001     8 N    0.977   125 H    0.965
                           126 H    0.963
     8   7 N    3.446 --     9 C    1.302     7 C    0.977   224 H    0.919
                            11 N    0.100
     9   6 C    3.976 --    10 N    1.328    11 N    1.320     8 N    1.302
    10   7 N    3.412 --     9 C    1.328   127 H    0.925   128 H    0.908
                            11 N    0.104
    11   7 N    3.398 --     9 C    1.320   129 H    0.926   130 H    0.900
                            10 N    0.104     8 N    0.100
    12   7 N    2.975 --    13 C    1.006   131 H    0.959   132 H    0.949
    13   6 C    3.985 --    12 N    1.006    16 C    0.959   133 H    0.954
                            14 C    0.949
    14   6 C    3.949 --    15 O    1.623    19 N    1.306    13 C    0.949
    15   8 O    1.937 --    14 C    1.623    19 N    0.195
    16   6 C    3.956 --    18 C    1.001    17 O    0.986   134 H    0.965
                            13 C    0.959
    17   8 O    1.935 --    16 C    0.986   135 H    0.878
    18   6 C    3.992 --    16 C    1.001   137 H    0.984   138 H    0.983
                           136 H    0.977
    19   7 N    3.463 --    14 C    1.306    20 C    0.972   139 H    0.856
                            15 O    0.195
    20   6 C    3.965 --    19 N    0.972    23 C    0.962   140 H    0.956
                            21 C    0.943
    21   6 C    3.949 --    22 O    1.623    29 N    1.309    20 C    0.943
    22   8 O    1.929 --    21 C    1.623    29 N    0.197
    23   6 C    3.990 --    24 C    1.015    20 C    0.962   141 H    0.955
                           142 H    0.948
    24   6 C    3.890 --    26 C    1.510    25 N    1.177    23 C    1.015
                            27 C    0.117
    25   7 N    3.032 --    27 C    1.652    24 C    1.177    28 N    0.108
    26   6 C    3.900 --    24 C    1.510    28 N    1.226   143 H    0.970
                            27 C    0.109
    27   6 C    3.446 --    25 N    1.652    28 N    1.524    24 C    0.117
                            26 C    0.109
    28   7 N    2.927 --    27 C    1.524    26 C    1.226    25 N    0.108
    29   7 N    3.483 --    21 C    1.309    30 C    0.982   144 H    0.925
                            22 O    0.197
    30   6 C    3.966 --    29 N    0.982    33 C    0.969    31 C    0.943
                           145 H    0.934
    31   6 C    3.948 --    32 O    1.580    39 N    1.327    30 C    0.943
    32   8 O    1.943 --    31 C    1.580    39 N    0.190
    33   6 C    3.988 --    34 C    1.013    30 C    0.969   146 H    0.964
                           147 H    0.946
    34   6 C    3.912 --    36 C    1.568    35 N    1.143    33 C    1.013
                            37 C    0.116
    35   7 N    3.516 --    37 C    1.289    34 C    1.143   226 H    0.857
    36   6 C    3.922 --    34 C    1.568    38 N    1.237   148 H    0.971
    37   6 C    3.137 --    38 N    1.621    35 N    1.289    34 C    0.116
    38   7 N    3.022 --    37 C    1.621    36 C    1.237
    39   7 N    3.465 --    31 C    1.327    40 C    0.967   149 H    0.870
                            32 O    0.190
    40   6 C    3.961 --    43 C    0.974    39 N    0.967   150 H    0.942
                            41 C    0.937
    41   6 C    3.951 --    42 O    1.659    45 N    1.278    40 C    0.937
    42   8 O    1.974 --    41 C    1.659    45 N    0.194
    43   6 C    3.954 --    44 O    1.000    40 C    0.974   152 H    0.968
                           151 H    0.967
    44   8 O    1.941 --    43 C    1.000   153 H    0.881
    45   7 N    3.447 --    41 C    1.278    46 C    0.970   154 H    0.856
                            42 O    0.194
    46   6 C    3.957 --    49 C    0.982    45 N    0.970   155 H    0.942
                            47 C    0.938
    47   6 C    3.951 --    48 O    1.621    56 N    1.316    46 C    0.938
    48   8 O    1.941 --    47 C    1.621    56 N    0.200
    49   6 C    3.978 --    50 C    1.003    46 C    0.982   156 H    0.969
                           157 H    0.959
    50   6 C    3.989 --    49 C    1.003    51 C    0.999   158 H    0.975
                           159 H    0.969
    51   6 C    3.951 --    50 C    0.999    52 N    0.978   160 H    0.963
                           161 H    0.955
    52   7 N    3.461 --    53 C    1.308    51 C    0.978   225 H    0.922
                            55 N    0.102
    53   6 C    3.976 --    55 N    1.322    54 N    1.317    52 N    1.308
    54   7 N    3.391 --    53 C    1.317   163 H    0.917   162 H    0.907
                            55 N    0.102
    55   7 N    3.405 --    53 C    1.322   164 H    0.927   165 H    0.916
                            52 N    0.102    54 N    0.102
    56   7 N    3.478 --    47 C    1.316    57 C    0.974   166 H    0.888
                            48 O    0.200
    57   6 C    3.953 --    56 N    0.974    60 C    0.969   167 H    0.953
                            58 C    0.932
    58   6 C    3.950 --    59 O    1.630    65 N    1.312    57 C    0.932
    59   8 O    1.949 --    58 C    1.630    65 N    0.200
    60   6 C    3.987 --    61 C    1.007   168 H    0.974   169 H    0.971
                            57 C    0.969
    61   6 C    3.926 --    60 C    1.007   171 H    0.967   170 H    0.956
                            62 C    0.911
    62   6 C    3.922 --    63 O    1.499    64 O    1.481    61 C    0.911
    63   8 O    1.810 --    62 C    1.499    64 O    0.213
    64   8 O    1.784 --    62 C    1.481    63 O    0.213
    65   7 N    3.485 --    58 C    1.312    66 C    0.978   172 H    0.904
                            59 O    0.200
    66   6 C    3.963 --    67 C    0.979    65 N    0.978   173 H    0.956
                            69 C    0.937
    67   6 C    3.897 --    68 O    1.887    66 C    0.979   174 H    0.950
    68   8 O    2.034 --    67 C    1.887
    69   6 C    3.987 --    71 C    1.005    70 C    0.994   175 H    0.966
                            66 C    0.937
    70   6 C    3.996 --    72 C    1.016    69 C    0.994   177 H    0.978
                           176 H    0.977
    71   6 C    3.993 --    69 C    1.005   178 H    0.987   179 H    0.975
                           180 H    0.974
    72   6 C    3.993 --    70 C    1.016   182 H    0.985   183 H    0.980
                           181 H    0.976
    73   7 N    2.997 --    74 C    1.024   185 H    0.961   184 H    0.957
    74   6 C    3.986 --    73 N    1.024    77 C    0.968   186 H    0.953
                            75 C    0.947
    75   6 C    3.945 --    76 O    1.653    82 N    1.278    74 C    0.947
    76   8 O    1.956 --    75 C    1.653    82 N    0.189
    77   6 C    3.988 --    78 C    0.999   187 H    0.974   188 H    0.971
                            74 C    0.968
    78   6 C    3.933 --    77 C    0.999   190 H    0.972   189 H    0.968
                            79 C    0.903
    79   6 C    3.924 --    80 O    1.512    81 O    1.490    78 C    0.903
    80   8 O    1.797 --    79 C    1.512    81 O    0.218
    81   8 O    1.762 --    79 C    1.490    80 O    0.218
    82   7 N    3.450 --    75 C    1.278    83 C    0.980   191 H    0.929
                            76 O    0.189
    83   6 C    3.965 --    86 C    0.981    82 N    0.980   192 H    0.956
                            84 C    0.942
    84   6 C    3.946 --    85 O    1.565    87 N    1.341    83 C    0.942
    85   8 O    1.926 --    84 C    1.565    87 N    0.191
    86   6 C    3.983 --   193 H    0.985   195 H    0.983    83 C    0.981
                           194 H    0.981
    87   7 N    3.510 --    84 C    1.341    88 C    0.970   196 H    0.922
                            85 O    0.191
    88   6 C    3.964 --    89 C    0.985    87 N    0.970   197 H    0.952
                            91 C    0.940
    89   6 C    3.834 --    90 O    1.883    88 C    0.985   198 H    0.768
                           111 H    0.121
    90   8 O    2.017 --    89 C    1.883
    91   6 C    3.987 --    92 C    1.010   199 H    0.969   200 H    0.966
                            88 C    0.940
    92   6 C    3.988 --    94 C    1.415    93 C    1.406    91 C    1.010
    93   6 C    3.992 --    95 C    1.448    92 C    1.406   201 H    0.971
                            96 C    0.109
    94   6 C    3.990 --    96 C    1.431    92 C    1.415   202 H    0.970
                            95 C    0.112
    95   6 C    3.989 --    93 C    1.448    97 C    1.370   203 H    0.970
                            94 C    0.112
    96   6 C    3.988 --    94 C    1.431    97 C    1.381   204 H    0.971
                            93 C    0.109
    97   6 C    3.933 --    96 C    1.381    95 C    1.370    98 O    1.061
    98   8 O    2.085 --    97 C    1.061   205 H    0.866
    99   1 H    1.000 --   206 H    0.987
   100   1 H    1.000 --   207 H    0.963
   101   1 H    0.999 --   208 H    0.969
   102   1 H    1.000 --   209 H    0.977
   103   1 H    1.000 --   210 H    0.983
   104   1 H    1.000 --   211 H    0.979
   105   1 H    1.000 --   212 H    0.976
   106   1 H    1.000 --   213 H    0.980
   107   1 H    1.000 --   214 H    0.993
   108   1 H    1.000 --   215 H    0.977
   109   1 H    1.000 --   216 H    0.986
   110   1 H    1.000 --   217 H    0.931
   111   1 H    0.999 --   218 H    0.829    89 C    0.121
   112   1 H    1.000 --   219 H    0.988
   113   1 H    1.000 --   220 H    0.951
   114   1 H    1.000 --   221 H    0.948
   115   1 H    1.000 --   222 H    0.945
   116   1 H    1.000 --   223 H    0.946
   117   1 H    0.974 --     1 N    0.957
   118   1 H    0.971 --     1 N    0.956
   119   1 H    0.996 --     2 C    0.960
   120   1 H    0.996 --     3 C    0.952
   121   1 H    0.996 --     5 C    0.973
   122   1 H    0.996 --     5 C    0.968
   123   1 H    0.997 --     6 C    0.977
   124   1 H    0.995 --     6 C    0.973
   125   1 H    0.993 --     7 C    0.965
   126   1 H    0.995 --     7 C    0.963
   127   1 H    0.946 --    10 N    0.925
   128   1 H    0.940 --    10 N    0.908
   129   1 H    0.944 --    11 N    0.926
   130   1 H    0.940 --    11 N    0.900
   131   1 H    0.977 --    12 N    0.959
   132   1 H    0.971 --    12 N    0.949
   133   1 H    0.998 --    13 C    0.954
   134   1 H    0.997 --    16 C    0.965
   135   1 H    0.894 --    17 O    0.878
   136   1 H    0.996 --    18 C    0.977
   137   1 H    0.998 --    18 C    0.984
   138   1 H    0.996 --    18 C    0.983
   139   1 H    0.948 --    19 N    0.856
   140   1 H    0.992 --    20 C    0.956
   141   1 H    0.993 --    23 C    0.955
   142   1 H    0.991 --    23 C    0.948
   143   1 H    0.997 --    26 C    0.970
   144   1 H    0.957 --    29 N    0.925
   145   1 H    0.991 --    30 C    0.934
   146   1 H    0.992 --    33 C    0.964
   147   1 H    0.992 --    33 C    0.946
   148   1 H    0.998 --    36 C    0.971
   149   1 H    0.940 --    39 N    0.870
   150   1 H    0.990 --    40 C    0.942
   151   1 H    0.997 --    43 C    0.967
   152   1 H    0.992 --    43 C    0.968
   153   1 H    0.900 --    44 O    0.881
   154   1 H    0.955 --    45 N    0.856
   155   1 H    0.990 --    46 C    0.942
   156   1 H    0.993 --    49 C    0.969
   157   1 H    0.995 --    49 C    0.959
   158   1 H    0.995 --    50 C    0.975
   159   1 H    0.993 --    50 C    0.969
   160   1 H    0.990 --    51 C    0.963
   161   1 H    0.992 --    51 C    0.955
   162   1 H    0.940 --    54 N    0.907
   163   1 H    0.935 --    54 N    0.917
   164   1 H    0.947 --    55 N    0.927
   165   1 H    0.934 --    55 N    0.916
   166   1 H    0.952 --    56 N    0.888
   167   1 H    0.990 --    57 C    0.953
   168   1 H    0.996 --    60 C    0.974
   169   1 H    0.997 --    60 C    0.971
   170   1 H    0.995 --    61 C    0.956
   171   1 H    0.996 --    61 C    0.967
   172   1 H    0.950 --    65 N    0.904
   173   1 H    0.992 --    66 C    0.956
   174   1 H    0.994 --    67 C    0.950
   175   1 H    0.997 --    69 C    0.966
   176   1 H    0.999 --    70 C    0.977
   177   1 H    0.998 --    70 C    0.978
   178   1 H    0.998 --    71 C    0.987
   179   1 H    0.998 --    71 C    0.975
   180   1 H    0.995 --    71 C    0.974
   181   1 H    0.999 --    72 C    0.976
   182   1 H    0.997 --    72 C    0.985
   183   1 H    0.997 --    72 C    0.980
   184   1 H    0.973 --    73 N    0.957
   185   1 H    0.976 --    73 N    0.961
   186   1 H    0.997 --    74 C    0.953
   187   1 H    0.998 --    77 C    0.974
   188   1 H    0.996 --    77 C    0.971
   189   1 H    0.997 --    78 C    0.968
   190   1 H    0.997 --    78 C    0.972
   191   1 H    0.958 --    82 N    0.929
   192   1 H    0.993 --    83 C    0.956
   193   1 H    0.995 --    86 C    0.985
   194   1 H    0.993 --    86 C    0.981
   195   1 H    0.995 --    86 C    0.983
   196   1 H    0.952 --    87 N    0.922
   197   1 H    0.994 --    88 C    0.952
   198   1 H    0.972 --    89 C    0.768   218 H    0.146
   199   1 H    0.995 --    91 C    0.969
   200   1 H    0.994 --    91 C    0.966
   201   1 H    0.997 --    93 C    0.971
   202   1 H    0.997 --    94 C    0.970
   203   1 H    0.997 --    95 C    0.970
   204   1 H    0.998 --    96 C    0.971
   205   1 H    0.886 --    98 O    0.866
   206   1 H    1.000 --    99 H    0.987
   207   1 H    1.000 --   100 H    0.963
   208   1 H    0.999 --   101 H    0.969
   209   1 H    1.000 --   102 H    0.977
   210   1 H    1.000 --   103 H    0.983
   211   1 H    1.000 --   104 H    0.979
   212   1 H    1.000 --   105 H    0.976
   213   1 H    1.000 --   106 H    0.980
   214   1 H    1.000 --   107 H    0.993
   215   1 H    1.000 --   108 H    0.977
   216   1 H    1.000 --   109 H    0.986
   217   1 H    1.000 --   110 H    0.931
   218   1 H    0.987 --   111 H    0.829   198 H    0.146
   219   1 H    1.000 --   112 H    0.988
   220   1 H    1.000 --   113 H    0.951
   221   1 H    1.000 --   114 H    0.948
   222   1 H    1.000 --   115 H    0.945
   223   1 H    1.000 --   116 H    0.946
   224   1 H    0.951 --     8 N    0.919
   225   1 H    0.951 --    52 N    0.922
   226   1 H    0.967 --    35 N    0.857
 ---------------------------------------------------------------------------

Topologies differ in total number of bonds
Writing topology from bond orders to xtbtopo.mol

molecular dipole:
                 x           y           z       tot (Debye)
 q only:        0.647      -5.952       0.739
   full:        1.496      -6.357       1.727      17.171
molecular quadrupole (traceless):
                xx          xy          yy          xz          yz          zz
 q only:     -107.565    1831.540     106.694    -230.985     -85.728       0.870
  q+dip:     -422.317    1969.433     224.430    -490.236     -76.160     197.887
   full:     -430.083    1971.711     229.960    -490.912     -77.140     200.122


           -------------------------------------------------
          | TOTAL ENERGY             -324.556265462356 Eh   |
          | GRADIENT NORM               1.259700950259 Eh/α |
          | HOMO-LUMO GAP               0.049852165644 eV   |
           -------------------------------------------------
########################################################################
[WARNING] Runtime exception occurred
-2- restart_readRestart: Dimension missmatch in restart file.
-1- restart_readRestart: Number of electron missmatch in restart file.
########################################################################

------------------------------------------------------------------------
 * finished run on 2025/05/05 at 17:06:50.113     
------------------------------------------------------------------------
 total:
 * wall-time:     0 d,  0 h,  0 min,  1.433 sec
 *  cpu-time:     0 d,  0 h,  0 min, 43.222 sec
 * ratio c/w:    30.162 speedup
 SCF:
 * wall-time:     0 d,  0 h,  0 min,  1.412 sec
 *  cpu-time:     0 d,  0 h,  0 min, 42.694 sec
 * ratio c/w:    30.227 speedup

