      -----------------------------------------------------------      
     |                   =====================                   |     
     |                           x T B                           |     
     |                   =====================                   |     
     |                         S. Grimme                         |     
     |          Mulliken Center for Theoretical Chemistry        |     
     |                    University of Bonn                     |     
      -----------------------------------------------------------      

   * xtb version 6.7.1 (edcfbbe) compiled by 'conda@afd1a870197c' on 2025-04-11

   xtb is free software: you can redistribute it and/or modify it under
   the terms of the GNU Lesser General Public License as published by
   the Free Software Foundation, either version 3 of the License, or
   (at your option) any later version.
   
   xtb is distributed in the hope that it will be useful,
   but WITHOUT ANY WARRANTY; without even the implied warranty of
   MERCHANTABILITY or FITNESS FOR A PARTICULAR PURPOSE.  See the
   GNU Lesser General Public License for more details.
   
   Cite this work as:
   * C. Bannwarth, E. Caldeweyher, S. Ehlert, A. Hansen, P. Pracht,
     J. Seibert, S. Spicher, S. Grimme, WIREs Comput. Mol. Sci., 2020, 11,
     e01493. DOI: 10.1002/wcms.1493
   
   for GFN2-xTB:
   * C. Bannwarth, S. Ehlert and S. Grimme., J. Chem. Theory Comput., 2019,
     15, 1652-1671. DOI: 10.1021/acs.jctc.8b01176
   for GFN1-xTB:
   * S. Grimme, C. Bannwarth, P. Shushkov, J. Chem. Theory Comput., 2017,
     13, 1989-2009. DOI: 10.1021/acs.jctc.7b00118
   for GFN0-xTB:
   * P. Pracht, E. Caldeweyher, S. Ehlert, S. Grimme, ChemRxiv, 2019, preprint.
     DOI: 10.26434/chemrxiv.8326202.v1
   for GFN-FF:
   * S. Spicher and S. Grimme, Angew. Chem. Int. Ed., 2020, 59, 15665-15673.
     DOI: 10.1002/anie.202004239
   
   for ALPB and GBSA implicit solvation:
   * S. Ehlert, M. Stahn, S. Spicher, S. Grimme, J. Chem. Theory Comput.,
     2021, 17, 4250-4261. DOI: 10.1021/acs.jctc.1c00471
   
   for ddCOSMO and CPCM-X implicit solvation:
   * M. Stahn, S. Ehlert, S. Grimme, J. Phys. Chem. A,
     2023, XX, XXXX-XXXX. DOI: 10.1021/acs.jpca.3c04382
   
   for DFT-D4:
   * E. Caldeweyher, C. Bannwarth and S. Grimme, J. Chem. Phys., 2017,
     147, 034112. DOI: 10.1063/1.4993215
   * E. Caldeweyher, S. Ehlert, A. Hansen, H. Neugebauer, S. Spicher,
     C. Bannwarth and S. Grimme, J. Chem. Phys., 2019, 150, 154122.
     DOI: 10.1063/1.5090222
   * E. Caldeweyher, J.-M. Mewes, S. Ehlert and S. Grimme, Phys. Chem. Chem. Phys.
     2020, 22, 8499-8512. DOI: 10.1039/D0CP00502A
   
   for sTDA-xTB:
   * S. Grimme and C. Bannwarth, J. Chem. Phys., 2016, 145, 054103.
     DOI: 10.1063/1.4959605
   
   in the mass-spec context:
   * V. Asgeirsson, C. Bauer and S. Grimme, Chem. Sci., 2017, 8, 4879.
     DOI: 10.1039/c7sc00601b
   * J. Koopman and S. Grimme, ACS Omega 2019, 4, 12, 15120-15133.
     DOI: 10.1021/acsomega.9b02011
   
   for metadynamics refer to:
   * S. Grimme, J. Chem. Theory Comput., 2019, 155, 2847-2862
     DOI: 10.1021/acs.jctc.9b00143
   
   for SPH calculations refer to:
   * S. Spicher and S. Grimme, J. Chem. Theory Comput., 2021, 17, 1701-1714
     DOI: 10.1021/acs.jctc.0c01306
   
   for ONIOM refer to:
   * C. Plett, A. Katbashev, S. Ehlert, S. Grimme, M. Bursch,
     Phys. Chem. Chem. Phys., 2023, 25, 17860-17868. DOI: 10.1039/D3CP02178E
   
   for DIPRO refer to:
   * J. Kohn, N. Gildemeister, S. Grimme, D. Fazzi, A. Hansen,
     J. Chem. Phys., 2023, just accepted.
   
   for PTB refer to:
   * S. Grimme, M. Mueller, A. Hansen, J. Chem. Phys., 2023, 158, 124111.
     DOI: 10.1063/5.0137838
   
   with help from (in alphabetical order)
   P. Atkinson, C. Bannwarth, F. Bohle, G. Brandenburg, E. Caldeweyher
   M. Checinski, S. Dohm, S. Ehlert, S. Ehrlich, I. Gerasimov, C. Hölzer
   A. Katbashev, J. Kohn, J. Koopman, C. Lavigne, S. Lehtola, F. März, M. Müller,
   F. Musil, H. Neugebauer, J. Pisarek, C. Plett, P. Pracht, F. Pultar,
   J. Seibert, P. Shushkov, S. Spicher, M. Stahn, M. Steiner, T. Strunk,
   J. Stückrath, T. Rose, and J. Unsleber
   
 * started run on 2025/05/05 at 17:01:00.222     
   ID    Z sym.   atoms
    1    7 N      1, 5, 13, 19, 28, 36, 44, 52, 60, 66, 73, 79, 82, 83, 91,
                  92, 99, 111, 118, 123
    2    6 C      2, 3, 6, 7, 9-12, 14-18, 20, 21, 23-25, 29, 30, 32, 33, 35,
                  37, 38, 40-43, 45, 46, 48-51, 53, 54, 56-59, 61-65, 67, 68,
                  70-72, 74, 75, 77, 78, 80, 81, 84, 85, 87-90, 93, 94, 96,
                  98, 100, 101, 103-109, 112, 113, 115-117, 119, 120, 122,
                  124, 125, 127-133
    3    8 O      4, 8, 22, 26, 27, 31, 39, 47, 55, 69, 76, 86, 95, 97, 102,
                  110, 114, 121, 126
    4   16 S      34
    5    1 H      134-312

           -------------------------------------------------
          |                Calculation Setup                |
           -------------------------------------------------

          program call               : xtb /tmp/tmpl9847ai7/HID/input.xyz --alpb ether --chrg 1 --input /tmp/tmpl9847ai7/HID/constraints.inp --gfn 2
          hostname                   : fedora
          coordinate file            : /tmp/tmpl9847ai7/HID/input.xyz
          omp threads                :                    32


molecular fragmentation (1/2 indicates fragments):
111111111111111111111111111111111111111111122222222222222222222222222222
222222222222222222222222222222222222222222222222222222222222222222222222
222222222222111111111111111111111111111111111111111122222222222222222222
222222222222222222222222222222222222222222222222222222222222222222222222
222222222222222222222222
# atoms in fragment 1/2:    83   229
 fragment masses (1/2) :      616.73     1296.88
CMA distance (Bohr)    :  12.258
constraining FC (au)   :  0.0500

           -------------------------------------------------
          |                 G F N 2 - x T B                 |
           -------------------------------------------------

        Reference                      10.1021/acs.jctc.8b01176
      * Hamiltonian:
        H0-scaling (s, p, d)           1.850000    2.230000    2.230000
        zeta-weighting                 0.500000
      * Dispersion:
        s8                             2.700000
        a1                             0.520000
        a2                             5.000000
        s9                             5.000000
      * Repulsion:
        kExp                           1.500000    1.000000
        rExp                           1.000000
      * Coulomb:
        alpha                          2.000000
        third order                    shell-resolved
        anisotropic                    true
        a3                             3.000000
        a5                             4.000000
        cn-shift                       1.200000
        cn-exp                         4.000000
        max-rad                        5.000000

      * Solvation model:               ALPB
        Solvent                        ether
        Parameter file                 internal GFN2-xTB/ALPB
        Dielectric constant                4.3300E+00
        Reference state                gsolv [1 M gas/solution]
        Free energy shift                  4.9534E-03 Eh       3.1083E+00 kcal/mol
        Temperature                        2.9815E+02 K
        Density                            7.1300E-01 kg/L
        Solvent mass                       7.4120E+01 g/mol
        Interaction kernel             P16
        Born radius scaling (c1)           1.5847E+00
        Born radii integrator          GBOBC
        Born offset                        0.0000E+00 a0       0.0000E+00 AA
        H-bond correction              true
        Ion screening                  false
        Surface tension                    1.0000E-05 Eh       1.5569E+01 dyn/cm
        Grid points                               230 per atom

          ...................................................
          :                      SETUP                      :
          :.................................................:
          :  # basis functions                 717          :
          :  # atomic orbitals                 716          :
          :  # shells                          446          :
          :  # electrons                       770          :
          :  max. iterations                   250          :
          :  Hamiltonian                  GFN2-xTB          :
          :  restarted?                      false          :
          :  GBSA solvation                   true          :
          :  PC potential                    false          :
          :  electronic temp.          300.0000000     K    :
          :  accuracy                    1.0000000          :
          :  -> integral cutoff          0.2500000E+02      :
          :  -> integral neglect         0.1000000E-07      :
          :  -> SCF convergence          0.1000000E-05 Eh   :
          :  -> wf. convergence          0.1000000E-03 e    :
          :  Broyden damping             0.4000000          :
          :  net charge                          1          :
          :  unpaired electrons                  0          :
          ...................................................

 iter      E             dE          RMSdq      gap      omega  full diag
   1   -432.7882887 -0.432788E+03  0.424E+00    0.20       0.0  T
   2   -431.5213477  0.126694E+01  0.313E+00    0.04       1.0  T
   3   -432.0541409 -0.532793E+00  0.279E+00    0.01       1.0  T
   4   -434.2910858 -0.223694E+01  0.171E+00    0.21       1.0  T
   5   -434.1981156  0.929702E-01  0.207E+00    0.29       1.0  T
   6   -434.4538033 -0.255688E+00  0.117E+00    0.16       1.0  T
   7   -433.8988156  0.554988E+00  0.155E+00    0.56       1.0  T
   8   -433.9401369 -0.413213E-01  0.132E+00    0.16       1.0  T
   9   -434.4606222 -0.520485E+00  0.948E-01    0.02       1.0  T
  10   -434.4995145 -0.388922E-01  0.854E-01    0.01       1.0  T
  11   -434.6398899 -0.140375E+00  0.758E-01    0.13       1.0  T
  12   -434.7783564 -0.138467E+00  0.522E-01    0.02       1.0  T
  13   -434.7731283  0.522807E-02  0.558E-01    0.05       1.0  T
  14   -434.5342582  0.238870E+00  0.103E+00    0.00       1.0  T
  15   -434.7908589 -0.256601E+00  0.466E-01    0.03       1.0  T
  16   -434.6712323  0.119627E+00  0.694E-01    0.02       1.0  T
  17   -434.8374385 -0.166206E+00  0.374E-01    0.05       1.0  T
  18   -434.8881178 -0.506793E-01  0.221E-01    0.02       1.0  T
  19   -434.8302005  0.579173E-01  0.387E-01    0.02       1.0  T
  20   -434.8171209  0.130797E-01  0.418E-01    0.00       1.0  T
  21   -434.8914758 -0.743549E-01  0.178E-01    0.02       1.0  T
  22   -434.8066215  0.848543E-01  0.431E-01    0.00       1.0  T
  23   -434.8627156 -0.560941E-01  0.279E-01    0.02       1.0  T
  24   -434.9037576 -0.410420E-01  0.836E-02    0.00       1.0  T
  25   -434.8999551  0.380245E-02  0.118E-01    0.02       1.0  T
  26   -434.9042767 -0.432155E-02  0.807E-02    0.02       1.0  T
  27   -434.9036614  0.615227E-03  0.863E-02    0.01       1.0  T
  28   -434.9046320 -0.970546E-03  0.666E-02    0.00       1.0  T
  29   -434.9062797 -0.164769E-02  0.437E-02    0.01       1.0  T
  30   -434.9066867 -0.407053E-03  0.314E-02    0.01       1.0  T
  31   -434.9070547 -0.367984E-03  0.158E-02    0.01       1.0  T
  32   -434.9071427 -0.879465E-04  0.869E-03    0.01       1.0  T
  33   -434.9071552 -0.125069E-04  0.683E-03    0.01       1.0  T
  34   -434.9071667 -0.115283E-04  0.471E-03    0.01       1.2  T
  35   -434.9071718 -0.507401E-05  0.352E-03    0.01       1.6  T
  36   -434.9071747 -0.290861E-05  0.264E-03    0.01       2.1  T
  37   -434.9071769 -0.219197E-05  0.160E-03    0.01       3.5  T
  38   -434.9071779 -0.103570E-05  0.764E-04    0.01       7.4  T
  39   -434.9071782 -0.283479E-06  0.250E-04    0.01      22.6  T
  40   -434.9071782 -0.106257E-07  0.191E-04    0.01      29.6  T

   *** convergence criteria satisfied after 40 iterations ***

         #    Occupation            Energy/Eh            Energy/eV
      -------------------------------------------------------------
         1        2.0000           -0.7670108             -20.8714
       ...           ...                  ...                  ...
       379        1.9587           -0.3841476             -10.4532
       380        1.9503           -0.3839668             -10.4483
       381        1.9400           -0.3837835             -10.4433
       382        1.9227           -0.3835333             -10.4365
       383        1.8485           -0.3828571             -10.4181
       384        1.5512           -0.3816589             -10.3855
       385        1.0803           -0.3806334             -10.3576 (HOMO)
       386        0.8978           -0.3802857             -10.3481 (LUMO)
       387        0.8512           -0.3801957             -10.3457
       388                         -0.3286223              -8.9423
       389                         -0.3139171              -8.5421
       390                         -0.3068511              -8.3498
       ...                                ...                  ...
       716                          1.2829986              34.9122
      -------------------------------------------------------------
                  HL-Gap            0.0003478 Eh            0.0095 eV
             Fermi-level           -0.3804806 Eh          -10.3534 eV

 SCC (total)                   0 d,  0 h,  0 min,  2.525 sec
 SCC setup                      ...        0 min,  0.006 sec (  0.228%)
 Dispersion                     ...        0 min,  0.016 sec (  0.641%)
 classical contributions        ...        0 min,  0.001 sec (  0.033%)
 integral evaluation            ...        0 min,  0.026 sec (  1.010%)
 iterations                     ...        0 min,  2.350 sec ( 93.057%)
 molecular gradient             ...        0 min,  0.124 sec (  4.895%)
 printout                       ...        0 min,  0.003 sec (  0.134%)

         :::::::::::::::::::::::::::::::::::::::::::::::::::::
         ::                     SUMMARY                     ::
         :::::::::::::::::::::::::::::::::::::::::::::::::::::
         :: total energy            -427.091396391870 Eh    ::
         :: total w/o Gsasa/hb      -426.986790374293 Eh    ::
         :: gradient norm              1.410720019399 Eh/a0 ::
         :: HOMO-LUMO gap              0.009463312735 eV    ::
         ::.................................................::
         :: SCC energy              -434.866679158985 Eh    ::
         :: -> isotropic ES            0.905039242606 Eh    ::
         :: -> anisotropic ES          0.095961849654 Eh    ::
         :: -> anisotropic XC          0.293100828160 Eh    ::
         :: -> dispersion             -0.390214700404 Eh    ::
         :: -> Gsolv                  -0.238713554367 Eh    ::
         ::    -> Gelec               -0.134107536790 Eh    ::
         ::    -> Gsasa               -0.093741856096 Eh    ::
         ::    -> Ghb                 -0.015817599058 Eh    ::
         ::    -> Gshift               0.004953437577 Eh    ::
         :: repulsion energy           7.775282767114 Eh    ::
         :: add. restraining           0.000000000000 Eh    ::
         :: total charge               1.000000000542 e     ::
         :::::::::::::::::::::::::::::::::::::::::::::::::::::

           -------------------------------------------------
          |                Property Printout                |
           -------------------------------------------------

    * Orbital Energies and Occupations

         #    Occupation            Energy/Eh            Energy/eV
      -------------------------------------------------------------
         1        2.0000           -0.7670108             -20.8714
       ...           ...                  ...                  ...
       373        2.0000           -0.4010143             -10.9122
       374        2.0000           -0.4000298             -10.8854
       375        2.0000           -0.3992058             -10.8629
       376        2.0000           -0.3972207             -10.8089
       377        2.0000           -0.3960339             -10.7766
       378        1.9993           -0.3880825             -10.5603
       379        1.9587           -0.3841476             -10.4532
       380        1.9503           -0.3839668             -10.4483
       381        1.9400           -0.3837835             -10.4433
       382        1.9227           -0.3835333             -10.4365
       383        1.8485           -0.3828571             -10.4181
       384        1.5512           -0.3816589             -10.3855
       385        1.0803           -0.3806334             -10.3576 (HOMO)
       386        0.8978           -0.3802857             -10.3481 (LUMO)
       387        0.8512           -0.3801957             -10.3457
       388                         -0.3286223              -8.9423
       389                         -0.3139171              -8.5421
       390                         -0.3068511              -8.3498
       391                         -0.2864458              -7.7946
       392                         -0.2621629              -7.1338
       393                         -0.2615186              -7.1163
       394                         -0.2548070              -6.9337
       395                         -0.2478169              -6.7434
       396                         -0.2457934              -6.6884
       ...                                ...                  ...
       716                          1.2829986              34.9122
      -------------------------------------------------------------
                  HL-Gap            0.0003478 Eh            0.0095 eV
             Fermi-level           -0.3804806 Eh          -10.3534 eV

     #   Z          covCN         q      C6AA      α(0)
     1   7 N        2.629    -0.351    29.033     8.002
     2   6 C        3.741    -0.020    21.004     6.539
     3   6 C        2.756     0.273    22.379     7.747
     4   8 O        0.859    -0.490    23.564     6.508
     5   7 N        2.689    -0.158    24.417     7.339
     6   6 C        3.798     0.027    20.115     6.386
     7   6 C        2.754     0.271    22.423     7.754
     8   8 O        0.858    -0.488    23.510     6.501
     9   6 C        3.809    -0.076    21.953     6.670
    10   6 C        3.037     0.007    27.832     8.653
    11   6 C        3.017     0.014    27.671     8.629
    12   6 C        3.112    -0.023    28.426     8.734
    13   7 N        1.914    -0.270    27.862     7.826
    14   6 C        3.057     0.067    26.451     8.434
    15   6 C        2.909    -0.031    28.774     8.796
    16   6 C        2.907    -0.030    28.743     8.791
    17   6 C        2.914    -0.039    28.975     8.827
    18   6 C        2.922    -0.038    28.957     8.824
    19   7 N        2.694    -0.146    24.160     7.300
    20   6 C        3.798     0.022    20.212     6.401
    21   6 C        2.762     0.270    22.432     7.756
    22   8 O        0.857    -0.483    23.420     6.488
    23   6 C        3.809    -0.064    21.729     6.635
    24   6 C        3.806    -0.085    22.121     6.696
    25   6 C        2.688     0.377    20.620     7.431
    26   8 O        0.856    -0.517    24.172     6.592
    27   8 O        0.856    -0.524    24.315     6.611
    28   7 N        2.687    -0.155    24.362     7.331
    29   6 C        3.798     0.013    20.354     6.424
    30   6 C        2.758     0.272    22.407     7.752
    31   8 O        0.859    -0.486    23.468     6.495
    32   6 C        3.830    -0.078    21.966     6.669
    33   6 C        3.798    -0.027    21.052     6.533
    34  16 S        1.969    -0.126   146.339    20.360
    35   6 C        3.751    -0.074    21.976     6.685
    36   7 N        2.694    -0.171    24.705     7.382
    37   6 C        3.792     0.025    20.156     6.394
    38   6 C        2.772     0.197    23.800     7.990
    39   8 O        0.856    -0.349    20.689     6.098
    40   6 C        3.820    -0.077    21.954     6.668
    41   6 C        3.853    -0.017    20.848     6.494
    42   6 C        3.767    -0.111    22.666     6.785
    43   6 C        3.766    -0.123    22.892     6.819
    44   7 N        2.627    -0.358    29.244     8.031
    45   6 C        3.787     0.022    20.221     6.405
    46   6 C        2.764     0.200    23.750     7.981
    47   8 O        0.856    -0.363    20.956     6.138
    48   6 C        3.854    -0.019    20.879     6.499
    49   6 C        3.804    -0.063    21.716     6.634
    50   6 C        3.760    -0.114    22.723     6.796
    51   6 C        3.753    -0.107    22.595     6.778
    52   7 N        2.648    -0.321    28.249     7.894
    53   6 C        3.788     0.035    19.998     6.369
    54   6 C        2.768     0.273    22.388     7.749
    55   8 O        0.859    -0.484    23.434     6.490
    56   6 C        3.814    -0.068    21.795     6.645
    57   6 C        3.056     0.002    27.932     8.667
    58   6 C        3.038     0.024    27.427     8.590
    59   6 C        3.106    -0.029    28.574     8.758
    60   7 N        1.916    -0.282    28.169     7.869
    61   6 C        3.082     0.065    26.451     8.431
    62   6 C        2.906    -0.032    28.796     8.799
    63   6 C        2.905    -0.030    28.755     8.793
    64   6 C        2.909    -0.045    29.120     8.849
    65   6 C        2.916    -0.036    28.888     8.814
    66   7 N        2.700    -0.168    24.624     7.370
    67   6 C        3.801     0.017    20.296     6.414
    68   6 C        2.775     0.273    22.395     7.751
    69   8 O        0.859    -0.501    23.807     6.542
    70   6 C        3.853    -0.019    20.875     6.498
    71   6 C        3.754    -0.121    22.871     6.819
    72   6 C        3.760    -0.123    22.916     6.824
    73   7 N        2.686    -0.162    24.500     7.351
    74   6 C        3.800     0.019    20.249     6.407
    75   6 C        2.749     0.270    22.433     7.755
    76   8 O        0.858    -0.486    23.475     6.496
    77   6 C        3.809    -0.079    21.993     6.676
    78   6 C        3.073     0.027    27.323     8.571
    79   7 N        2.841    -0.116    23.528     7.204
    80   6 C        3.047     0.010    27.754     8.640
    81   6 C        2.092     0.039    29.913     8.836
    82   7 N        1.972    -0.230    26.846     7.684
    83   7 N        2.687    -0.172    24.722     7.385
    84   6 C        3.790     0.018    20.291     6.415
    85   6 C        2.753     0.271    22.422     7.754
    86   8 O        0.859    -0.471    23.160     6.452
    87   6 C        3.808    -0.072    21.869     6.657
    88   6 C        3.802    -0.090    22.219     6.711
    89   6 C        3.802    -0.090    22.217     6.711
    90   6 C        3.732    -0.048    21.536     6.624
    91   7 N        3.485    -0.161    24.481     7.349
    92   7 N        2.687    -0.162    24.496     7.351
    93   6 C        3.789     0.015    20.335     6.422
    94   6 C        2.766     0.198    23.779     7.986
    95   8 O        0.856    -0.353    20.764     6.109
    96   6 C        3.727     0.106    18.930     6.212
    97   8 O        1.652    -0.472    22.297     6.374
    98   6 C        3.757    -0.142    23.296     6.882
    99   7 N        2.633    -0.347    28.951     7.991
   100   6 C        3.788     0.028    20.124     6.389
   101   6 C        2.757     0.267    22.493     7.766
   102   8 O        0.857    -0.504    23.870     6.550
   103   6 C        3.813    -0.077    21.964     6.671
   104   6 C        2.959    -0.008    28.228     8.715
   105   6 C        2.923    -0.054    29.334     8.882
   106   6 C        2.928    -0.047    29.170     8.857
   107   6 C        2.916    -0.085    30.123     9.000
   108   6 C        2.917    -0.062    29.535     8.912
   109   6 C        2.848     0.147    24.798     8.161
   110   8 O        1.663    -0.447    21.777     6.300
   111   7 N        2.685    -0.163    24.535     7.357
   112   6 C        3.786     0.010    20.429     6.438
   113   6 C        2.755     0.274    22.359     7.743
   114   8 O        0.862    -0.488    23.528     6.503
   115   6 C        3.841    -0.019    20.882     6.501
   116   6 C        3.753    -0.118    22.824     6.813
   117   6 C        3.752    -0.120    22.857     6.818
   118   7 N        2.692    -0.169    24.658     7.375
   119   6 C        3.800     0.020    20.242     6.406
   120   6 C        2.763     0.269    22.455     7.760
   121   8 O        0.859    -0.502    23.837     6.546
   122   6 C        3.766    -0.116    22.765     6.800
   123   7 N        2.686    -0.172    24.718     7.384
   124   6 C        3.797     0.032    20.035     6.374
   125   6 C        2.765     0.193    23.869     8.001
   126   8 O        0.856    -0.370    21.087     6.157
   127   6 C        3.820    -0.073    21.884     6.657
   128   6 C        2.969     0.009    27.813     8.651
   129   6 C        2.923    -0.041    29.028     8.835
   130   6 C        2.929    -0.049    29.213     8.864
   131   6 C        2.919    -0.038    28.941     8.822
   132   6 C        2.915    -0.038    28.950     8.823
   133   6 C        2.920    -0.038    28.943     8.822
   134   1 H        0.980    -0.001     3.059     2.733
   135   1 H        0.980     0.006     2.943     2.681
   136   1 H        0.980    -0.011     3.253     2.818
   137   1 H        0.980     0.012     2.853     2.639
   138   1 H        0.980     0.023     2.680     2.558
   139   1 H        0.980    -0.025     3.526     2.934
   140   1 H        0.980     0.006     2.953     2.685
   141   1 H        0.980     0.000     3.048     2.728
   142   1 H        0.980    -0.015     3.319     2.847
   143   1 H        0.980     0.005     2.972     2.694
   144   1 H        0.980     0.000     3.043     2.726
   145   1 H        0.980    -0.007     3.165     2.780
   146   1 H        0.980     0.014     2.816     2.622
   147   1 H        0.980     0.018     2.751     2.592
   148   1 H        0.980     0.008     2.911     2.666
   149   1 H        0.980     0.004     2.981     2.698
   150   1 H        0.980    -0.001     3.064     2.735
   151   1 H        0.980    -0.009     3.209     2.799
   152   1 H        0.980     0.016     2.790     2.610
   153   1 H        0.980    -0.009     3.212     2.800
   154   1 H        0.980    -0.021     3.438     2.898
   155   1 H        0.980    -0.014     3.295     2.836
   156   1 H        0.980     0.028     2.614     2.526
   157   1 H        0.860     0.179     1.217     1.728
   158   1 H        0.860     0.163     1.314     1.796
   159   1 H        0.927     0.046     2.370     2.407
   160   1 H        0.927     0.080     1.981     2.201
   161   1 H        0.861     0.204     1.084     1.631
   162   1 H        0.927     0.079     1.993     2.207
   163   1 H        0.927     0.088     1.901     2.156
   164   1 H        0.927     0.072     2.065     2.247
   165   1 H        0.929     0.042     2.425     2.435
   166   1 H        0.929     0.051     2.312     2.378
   167   1 H        0.929     0.064     2.148     2.292
   168   1 H        0.929     0.051     2.305     2.374
   169   1 H        0.929     0.056     2.247     2.344
   170   1 H        0.861     0.226     0.983     1.553
   171   1 H        0.927     0.084     1.938     2.177
   172   1 H        0.927     0.060     2.200     2.319
   173   1 H        0.927     0.074     2.038     2.232
   174   1 H        0.927     0.077     2.013     2.219
   175   1 H        0.927     0.076     2.025     2.225
   176   1 H        0.861     0.208     1.066     1.617
   177   1 H        0.927     0.098     1.802     2.099
   178   1 H        0.927     0.068     2.111     2.272
   179   1 H        0.927     0.072     2.061     2.245
   180   1 H        0.927     0.078     1.999     2.211
   181   1 H        0.927     0.072     2.068     2.249
   182   1 H        0.927     0.078     2.003     2.213
   183   1 H        0.927     0.069     2.092     2.262
   184   1 H        0.927     0.067     2.119     2.276
   185   1 H        0.861     0.233     0.952     1.528
   186   1 H        0.926     0.094     1.840     2.121
   187   1 H        0.929     0.075     2.029     2.227
   188   1 H        0.927     0.063     2.163     2.300
   189   1 H        0.927     0.065     2.137     2.286
   190   1 H        0.927     0.047     2.362     2.403
   191   1 H        0.927     0.041     2.441     2.443
   192   1 H        0.927     0.036     2.499     2.472
   193   1 H        0.926     0.043     2.409     2.427
   194   1 H        0.927     0.045     2.384     2.414
   195   1 H        0.927     0.047     2.360     2.402
   196   1 H        0.927     0.040     2.449     2.447
   197   1 H        0.860     0.173     1.254     1.755
   198   1 H        0.860     0.159     1.344     1.816
   199   1 H        0.927     0.083     1.951     2.184
   200   1 H        0.929     0.061     2.189     2.313
   201   1 H        0.926     0.041     2.437     2.441
   202   1 H        0.927     0.030     2.582     2.513
   203   1 H        0.927     0.041     2.439     2.442
   204   1 H        0.927     0.043     2.413     2.429
   205   1 H        0.927     0.051     2.305     2.374
   206   1 H        0.927     0.049     2.337     2.390
   207   1 H        0.927     0.041     2.432     2.439
   208   1 H        0.926     0.037     2.482     2.464
   209   1 H        0.927     0.037     2.491     2.468
   210   1 H        0.860     0.183     1.198     1.715
   211   1 H        0.860     0.212     1.049     1.605
   212   1 H        0.927     0.056     2.251     2.346
   213   1 H        0.927     0.065     2.146     2.291
   214   1 H        0.927     0.063     2.167     2.302
   215   1 H        0.929     0.037     2.485     2.465
   216   1 H        0.929     0.050     2.318     2.381
   217   1 H        0.929     0.072     2.068     2.248
   218   1 H        0.929     0.055     2.258     2.350
   219   1 H        0.929     0.058     2.223     2.332
   220   1 H        0.861     0.231     0.962     1.536
   221   1 H        0.927     0.086     1.918     2.166
   222   1 H        0.927     0.047     2.357     2.401
   223   1 H        0.927     0.048     2.348     2.396
   224   1 H        0.927     0.039     2.464     2.455
   225   1 H        0.927     0.053     2.281     2.362
   226   1 H        0.927     0.047     2.358     2.401
   227   1 H        0.927     0.050     2.315     2.379
   228   1 H        0.927     0.053     2.289     2.366
   229   1 H        0.861     0.234     0.946     1.524
   230   1 H        0.927     0.096     1.823     2.111
   231   1 H        0.927     0.087     1.912     2.162
   232   1 H        0.927     0.087     1.910     2.161
   233   1 H        0.929     0.063     2.167     2.302
   234   1 H        0.861     0.223     0.995     1.562
   235   1 H        0.927     0.075     2.031     2.228
   236   1 H        0.927     0.064     2.155     2.295
   237   1 H        0.927     0.068     2.109     2.271
   238   1 H        0.927     0.059     2.208     2.324
   239   1 H        0.927     0.065     2.141     2.288
   240   1 H        0.927     0.093     1.852     2.128
   241   1 H        0.926     0.066     2.133     2.284
   242   1 H        0.927     0.116     1.648     2.007
   243   1 H        0.927     0.118     1.628     1.995
   244   1 H        0.861     0.212     1.049     1.604
   245   1 H        0.927     0.098     1.801     2.099
   246   1 H        0.929     0.087     1.907     2.159
   247   1 H        0.927     0.075     2.026     2.226
   248   1 H        0.804     0.326     0.648     1.265
   249   1 H        0.927     0.062     2.172     2.305
   250   1 H        0.927     0.065     2.145     2.290
   251   1 H        0.927     0.073     2.058     2.243
   252   1 H        0.860     0.169     1.280     1.772
   253   1 H        0.860     0.175     1.241     1.745
   254   1 H        0.927     0.056     2.248     2.345
   255   1 H        0.927     0.051     2.307     2.375
   256   1 H        0.927     0.059     2.210     2.325
   257   1 H        0.929     0.051     2.304     2.374
   258   1 H        0.929     0.049     2.331     2.387
   259   1 H        0.929     0.047     2.357     2.400
   260   1 H        0.929     0.058     2.217     2.328
   261   1 H        1.251     0.352     0.569     1.178
   262   1 H        0.861     0.221     1.005     1.570
   263   1 H        0.927     0.072     2.059     2.244
   264   1 H        0.927     0.051     2.312     2.378
   265   1 H        0.927     0.047     2.353     2.399
   266   1 H        0.927     0.036     2.500     2.473
   267   1 H        0.927     0.055     2.264     2.353
   268   1 H        0.927     0.049     2.336     2.390
   269   1 H        0.926     0.050     2.314     2.379
   270   1 H        0.927     0.048     2.340     2.392
   271   1 H        0.861     0.210     1.058     1.611
   272   1 H        0.927     0.096     1.820     2.110
   273   1 H        0.927     0.056     2.249     2.345
   274   1 H        0.926     0.069     2.092     2.262
   275   1 H        0.927     0.053     2.284     2.363
   276   1 H        0.861     0.240     0.924     1.506
   277   1 H        0.927     0.106     1.732     2.058
   278   1 H        0.929     0.084     1.941     2.179
   279   1 H        0.927     0.085     1.931     2.173
   280   1 H        0.926     0.070     2.086     2.259
   281   1 H        0.929     0.042     2.427     2.436
   282   1 H        0.929     0.039     2.461     2.453
   283   1 H        0.929     0.041     2.436     2.440
   284   1 H        0.929     0.045     2.376     2.410
   285   1 H        0.929     0.041     2.441     2.443
   286   1 H        0.980     0.001     3.036     2.723
   287   1 H        0.980     0.002     3.019     2.715
   288   1 H        0.980     0.010     2.876     2.650
   289   1 H        0.980    -0.012     3.262     2.822
   290   1 H        0.980    -0.022     3.458     2.906
   291   1 H        0.980     0.025     2.649     2.543
   292   1 H        0.980    -0.009     3.212     2.801
   293   1 H        0.980     0.011     2.871     2.647
   294   1 H        0.980     0.025     2.655     2.546
   295   1 H        0.980    -0.004     3.127     2.763
   296   1 H        0.980    -0.000     3.054     2.731
   297   1 H        0.980     0.007     2.927     2.673
   298   1 H        0.980    -0.015     3.313     2.844
   299   1 H        0.980    -0.016     3.346     2.858
   300   1 H        0.980    -0.009     3.209     2.799
   301   1 H        0.980    -0.004     3.121     2.761
   302   1 H        0.980     0.004     2.979     2.697
   303   1 H        0.980     0.009     2.898     2.660
   304   1 H        0.980    -0.013     3.282     2.831
   305   1 H        0.980     0.003     3.003     2.708
   306   1 H        0.980     0.013     2.827     2.627
   307   1 H        0.980    -0.000     3.054     2.731
   308   1 H        0.980    -0.006     3.152     2.774
   309   1 H        0.860     0.280     0.775     1.379
   310   1 H        0.860     0.304     0.701     1.311
   311   1 H        0.860     0.298     0.719     1.328
   312   1 H        1.302     0.247     0.882     1.466

 Mol. C6AA /au·bohr⁶  :     848702.492132
 Mol. C8AA /au·bohr⁸  :   18686755.695208
 Mol. α(0) /au        :       1405.561367


Wiberg/Mayer (AO) data.
largest (>0.10) Wiberg bond orders for each atom

 ---------------------------------------------------------------------------
     #   Z sym  total        # sym  WBO       # sym  WBO       # sym  WBO
 ---------------------------------------------------------------------------
     1   7 N    2.969 --     2 C    1.016   158 H    0.958   157 H    0.953
     2   6 C    3.976 --     1 N    1.016   160 H    0.972     3 C    0.959
                           159 H    0.956
     3   6 C    3.946 --     4 O    1.631     5 N    1.302     2 C    0.959
     4   8 O    1.935 --     3 C    1.631     5 N    0.195
     5   7 N    3.473 --     3 C    1.302     6 C    0.983   161 H    0.927
                             4 O    0.195
     6   6 C    3.948 --     5 N    0.983   162 H    0.951     9 C    0.951
                             7 C    0.931
     7   6 C    3.949 --     8 O    1.631    19 N    1.313     6 C    0.931
     8   8 O    1.940 --     7 C    1.631    19 N    0.196
     9   6 C    3.978 --    10 C    1.029   164 H    0.971     6 C    0.951
                           163 H    0.944
    10   6 C    3.716 --    11 C    1.455    12 C    1.134     9 C    1.029
    11   6 C    3.962 --    10 C    1.455    13 N    1.352   165 H    0.971
    12   6 C    3.944 --    15 C    1.392    14 C    1.231    10 C    1.134
    13   7 N    2.692 --    11 C    1.352    14 C    1.232
    14   6 C    3.967 --    16 C    1.333    13 N    1.232    12 C    1.231
    15   6 C    3.900 --    17 C    1.403    12 C    1.392   166 H    0.967
    16   6 C    3.878 --    18 C    1.439    14 C    1.333   167 H    0.967
    17   6 C    3.912 --    15 C    1.403    18 C    1.402   168 H    0.973
    18   6 C    3.950 --    16 C    1.439    17 C    1.402   169 H    0.968
    19   7 N    3.488 --     7 C    1.313    20 C    0.989   170 H    0.912
                             8 O    0.196
    20   6 C    3.957 --    19 N    0.989    23 C    0.957   171 H    0.953
                            21 C    0.946
    21   6 C    3.946 --    22 O    1.607    28 N    1.309    20 C    0.946
    22   8 O    1.944 --    21 C    1.607    28 N    0.192
    23   6 C    3.978 --    24 C    0.999   173 H    0.972   172 H    0.971
                            20 C    0.957
    24   6 C    3.831 --    23 C    0.999   174 H    0.968   175 H    0.936
                            25 C    0.866
    25   6 C    3.900 --    26 O    1.514    27 O    1.497    24 C    0.866
    26   8 O    1.779 --    25 C    1.514    27 O    0.225
    27   8 O    1.762 --    25 C    1.497    26 O    0.225
    28   7 N    3.476 --    21 C    1.309    29 C    0.980   176 H    0.926
                            22 O    0.192
    29   6 C    3.957 --    28 N    0.980    32 C    0.962   177 H    0.945
                            30 C    0.945
    30   6 C    3.955 --    31 O    1.636    36 N    1.307    29 C    0.945
    31   8 O    1.953 --    30 C    1.636    36 N    0.202
    32   6 C    3.981 --    33 C    1.001   178 H    0.969    29 C    0.962
                           179 H    0.956
    33   6 C    3.971 --    32 C    1.001    34 S    0.996   181 H    0.968
                           180 H    0.955
    34  16 S    2.083 --    35 C    1.014    33 C    0.996
    35   6 C    3.969 --    34 S    1.014   183 H    0.979   182 H    0.977
                           184 H    0.961
    36   7 N    3.472 --    30 C    1.307    37 C    0.979   185 H    0.896
                            31 O    0.202
    37   6 C    3.968 --    38 C    0.995    36 N    0.979   186 H    0.946
                            40 C    0.943
    38   6 C    3.901 --    39 O    1.879    37 C    0.995   187 H    0.947
    39   8 O    2.073 --    38 C    1.879
    40   6 C    3.983 --    41 C    0.985   189 H    0.971   188 H    0.970
                            37 C    0.943
    41   6 C    3.994 --    42 C    1.013    43 C    1.006    40 C    0.985
                           190 H    0.960
    42   6 C    3.996 --    41 C    1.013   192 H    0.984   193 H    0.984
                           191 H    0.981
    43   6 C    3.994 --    41 C    1.006   196 H    0.986   195 H    0.985
                           194 H    0.984
    44   7 N    2.988 --    45 C    1.017   198 H    0.959   197 H    0.950
    45   6 C    3.978 --    44 N    1.017    46 C    0.992   199 H    0.948
                            48 C    0.931
    46   6 C    3.901 --    47 O    1.894    45 C    0.992   200 H    0.949
    47   8 O    2.043 --    46 C    1.894
    48   6 C    3.984 --    50 C    1.006    49 C    0.997   201 H    0.966
                            45 C    0.931
    49   6 C    3.997 --    51 C    1.012    48 C    0.997   202 H    0.979
                           203 H    0.978
    50   6 C    3.994 --    48 C    1.006   205 H    0.983   204 H    0.979
                           206 H    0.976
    51   6 C    3.995 --    49 C    1.012   208 H    0.988   207 H    0.987
                           209 H    0.984
    52   7 N    3.037 --    53 C    1.036   210 H    0.947   211 H    0.908
    53   6 C    3.945 --    52 N    1.036   212 H    0.964    54 C    0.931
                            56 C    0.909
    54   6 C    3.947 --    55 O    1.612    66 N    1.329    53 C    0.931
    55   8 O    1.959 --    54 C    1.612    66 N    0.199
    56   6 C    3.966 --    57 C    1.047   214 H    0.964   213 H    0.961
                            53 C    0.909
    57   6 C    3.735 --    58 C    1.355    59 C    1.179    56 C    1.047
    58   6 C    3.956 --    60 N    1.450    57 C    1.355   215 H    0.971
    59   6 C    3.973 --    62 C    1.372    61 C    1.234    57 C    1.179
    60   7 N    2.773 --    58 C    1.450    61 C    1.194
    61   6 C    3.961 --    63 C    1.362    59 C    1.234    60 N    1.194
    62   6 C    3.890 --    64 C    1.390    59 C    1.372   216 H    0.972
    63   6 C    3.896 --    65 C    1.407    61 C    1.362   217 H    0.967
    64   6 C    3.943 --    65 C    1.436    62 C    1.390   218 H    0.974
    65   6 C    3.929 --    64 C    1.436    63 C    1.407   219 H    0.972
    66   7 N    3.491 --    54 C    1.329    67 C    0.968   220 H    0.893
                            55 O    0.199
    67   6 C    3.958 --    66 N    0.968    70 C    0.959   221 H    0.953
                            68 C    0.947
    68   6 C    3.948 --    69 O    1.583    73 N    1.336    67 C    0.947
    69   8 O    1.948 --    68 C    1.583    73 N    0.195
    70   6 C    3.989 --    72 C    1.010    71 C    0.999   222 H    0.969
                            67 C    0.959
    71   6 C    3.993 --    70 C    0.999   224 H    0.984   225 H    0.983
                           223 H    0.979
    72   6 C    3.993 --    70 C    1.010   227 H    0.984   228 H    0.983
                           226 H    0.981
    73   7 N    3.492 --    68 C    1.336    74 C    0.981   229 H    0.895
                            69 O    0.195
    74   6 C    3.960 --    73 N    0.981    77 C    0.961    75 C    0.947
                           230 H    0.938
    75   6 C    3.954 --    76 O    1.630    83 N    1.311    74 C    0.947
    76   8 O    1.952 --    75 C    1.630    83 N    0.198
    77   6 C    3.986 --    78 C    1.014    74 C    0.961   232 H    0.955
                           231 H    0.952
    78   6 C    3.902 --    80 C    1.574    79 N    1.141    77 C    1.014
                            81 C    0.111
    79   7 N    3.513 --    81 C    1.313    78 C    1.141   312 H    0.780
                           110 O    0.103
    80   6 C    3.893 --    78 C    1.574    82 N    1.203   233 H    0.963
    81   6 C    3.207 --    82 N    1.696    79 N    1.313    78 C    0.111
    82   7 N    3.058 --    81 C    1.696    80 C    1.203
    83   7 N    3.465 --    75 C    1.311    84 C    0.964   234 H    0.910
                            76 O    0.198
    84   6 C    3.963 --    87 C    0.970    83 N    0.964   235 H    0.955
                            85 C    0.946
    85   6 C    3.948 --    86 O    1.651    92 N    1.284    84 C    0.946
    86   8 O    1.979 --    85 C    1.651    92 N    0.194
    87   6 C    3.987 --    88 C    1.003   236 H    0.975   237 H    0.970
                            84 C    0.970
    88   6 C    3.993 --    89 C    1.004    87 C    1.003   239 H    0.977
                           238 H    0.972
    89   6 C    3.985 --    90 C    1.010    88 C    1.004   241 H    0.967
                           240 H    0.963
    90   6 C    3.907 --    89 C    1.010   243 H    0.968   242 H    0.967
                            91 N    0.942
    91   7 N    3.655 --    90 C    0.942   309 H    0.904   311 H    0.899
                           310 H    0.875
    92   7 N    3.461 --    85 C    1.284    93 C    0.984   244 H    0.914
                            86 O    0.194
    93   6 C    3.968 --    92 N    0.984    94 C    0.979   245 H    0.939
                            96 C    0.931
    94   6 C    3.895 --    95 O    1.883    93 C    0.979   246 H    0.948
    95   8 O    2.059 --    94 C    1.883
    96   6 C    3.951 --    98 C    0.997    97 O    0.993   247 H    0.962
                            93 C    0.931
    97   8 O    1.948 --    96 C    0.993   248 H    0.867
    98   6 C    3.987 --    96 C    0.997   249 H    0.981   251 H    0.978
                           250 H    0.977
    99   7 N    2.992 --   100 C    1.022   252 H    0.956   253 H    0.952
   100   6 C    3.976 --    99 N    1.022   254 H    0.958   101 C    0.949
                           103 C    0.943
   101   6 C    3.946 --   102 O    1.612   111 N    1.323   100 C    0.949
   102   8 O    1.919 --   101 C    1.612   111 N    0.196
   103   6 C    3.983 --   104 C    1.014   255 H    0.976   256 H    0.959
                           100 C    0.943
   104   6 C    3.982 --   105 C    1.408   106 C    1.401   103 C    1.014
   105   6 C    3.988 --   107 C    1.449   104 C    1.408   257 H    0.960
                           108 C    0.104
   106   6 C    3.987 --   108 C    1.447   104 C    1.401   258 H    0.972
                           107 C    0.111
   107   6 C    3.985 --   105 C    1.449   109 C    1.359   259 H    0.969
                           106 C    0.111
   108   6 C    3.988 --   106 C    1.447   109 C    1.376   260 H    0.968
                           105 C    0.104
   109   6 C    3.932 --   108 C    1.376   107 C    1.359   110 O    1.067
   110   8 O    2.085 --   109 C    1.067   261 H    0.730    79 N    0.103
   111   7 N    3.483 --   101 C    1.323   112 C    0.971   262 H    0.911
                           102 O    0.196
   112   6 C    3.960 --   111 N    0.971   263 H    0.962   115 C    0.953
                           113 C    0.940
   113   6 C    3.950 --   114 O    1.618   118 N    1.322   112 C    0.940
   114   8 O    1.953 --   113 C    1.618   118 N    0.198
   115   6 C    3.987 --   117 C    1.004   116 C    1.003   264 H    0.973
                           112 C    0.953
   116   6 C    3.993 --   115 C    1.003   265 H    0.988   266 H    0.984
                           267 H    0.981
   117   6 C    3.992 --   115 C    1.004   268 H    0.988   270 H    0.986
                           269 H    0.985
   118   7 N    3.481 --   113 C    1.322   119 C    0.960   271 H    0.925
                           114 O    0.198
   119   6 C    3.958 --   122 C    0.990   118 N    0.960   272 H    0.947
                           120 C    0.946
   120   6 C    3.953 --   121 O    1.619   123 N    1.326   119 C    0.946
   121   8 O    1.934 --   120 C    1.619   123 N    0.202
   122   6 C    3.988 --   119 C    0.990   273 H    0.985   275 H    0.978
                           274 H    0.976
   123   7 N    3.478 --   120 C    1.326   124 C    0.976   276 H    0.882
                           121 O    0.202
   124   6 C    3.973 --   125 C    1.021   123 N    0.976   127 C    0.929
                           277 H    0.927
   125   6 C    3.905 --   126 O    1.853   124 C    1.021   278 H    0.949
   126   8 O    2.049 --   125 C    1.853
   127   6 C    3.985 --   128 C    1.018   280 H    0.965   279 H    0.962
                           124 C    0.929
   128   6 C    3.990 --   130 C    1.433   129 C    1.390   127 C    1.018
                           133 C    0.108
   129   6 C    3.994 --   131 C    1.468   128 C    1.390   281 H    0.971
                           132 C    0.110
   130   6 C    3.993 --   128 C    1.433   132 C    1.420   282 H    0.971
                           131 C    0.113
   131   6 C    3.993 --   129 C    1.468   133 C    1.412   283 H    0.970
                           130 C    0.113
   132   6 C    3.993 --   133 C    1.463   130 C    1.420   284 H    0.973
                           129 C    0.110
   133   6 C    3.994 --   132 C    1.463   131 C    1.412   285 H    0.973
                           128 C    0.108
   134   1 H    1.000 --   286 H    0.998
   135   1 H    1.000 --   287 H    0.980
   136   1 H    1.000 --   288 H    0.983
   137   1 H    1.000 --   289 H    0.974
   138   1 H    0.999 --   290 H    0.919
   139   1 H    0.999 --   291 H    0.918
   140   1 H    1.000 --   292 H    0.973
   141   1 H    0.999 --   293 H    0.958
   142   1 H    1.000 --   294 H    0.948
   143   1 H    1.000 --   295 H    0.987
   144   1 H    1.000 --   296 H    0.998
   145   1 H    1.000 --   297 H    0.972
   146   1 H    1.000 --   298 H    0.985
   147   1 H    1.000 --   299 H    0.974
   148   1 H    1.000 --   300 H    0.977
   149   1 H    1.000 --   301 H    0.992
   150   1 H    1.000 --   302 H    0.978
   151   1 H    1.000 --   303 H    0.967
   152   1 H    1.000 --   304 H    0.960
   153   1 H    1.000 --   305 H    0.972
   154   1 H    1.000 --   306 H    0.929
   155   1 H    1.000 --   307 H    0.954
   156   1 H    0.999 --   308 H    0.880
   157   1 H    0.966 --     1 N    0.953
   158   1 H    0.973 --     1 N    0.958
   159   1 H    0.988 --     2 C    0.956
   160   1 H    0.993 --     2 C    0.972
   161   1 H    0.958 --     5 N    0.927
   162   1 H    0.994 --     6 C    0.951
   163   1 H    0.976 --     9 C    0.944
   164   1 H    0.994 --     9 C    0.971
   165   1 H    0.997 --    11 C    0.971
   166   1 H    0.996 --    15 C    0.967
   167   1 H    0.994 --    16 C    0.967
   168   1 H    0.997 --    17 C    0.973
   169   1 H    0.996 --    18 C    0.968
   170   1 H    0.949 --    19 N    0.912
   171   1 H    0.993 --    20 C    0.953
   172   1 H    0.996 --    23 C    0.971
   173   1 H    0.992 --    23 C    0.972
   174   1 H    0.991 --    24 C    0.968
   175   1 H    0.989 --    24 C    0.936
   176   1 H    0.956 --    28 N    0.926
   177   1 H    0.990 --    29 C    0.945
   178   1 H    0.995 --    32 C    0.969
   179   1 H    0.994 --    32 C    0.956
   180   1 H    0.994 --    33 C    0.955
   181   1 H    0.987 --    33 C    0.968
   182   1 H    0.994 --    35 C    0.977
   183   1 H    0.989 --    35 C    0.979
   184   1 H    0.990 --    35 C    0.961
   185   1 H    0.946 --    36 N    0.896
   186   1 H    0.991 --    37 C    0.946
   187   1 H    0.994 --    38 C    0.947
   188   1 H    0.995 --    40 C    0.970
   189   1 H    0.996 --    40 C    0.971
   190   1 H    0.998 --    41 C    0.960
   191   1 H    0.998 --    42 C    0.981
   192   1 H    0.999 --    42 C    0.984
   193   1 H    0.997 --    42 C    0.984
   194   1 H    0.998 --    43 C    0.984
   195   1 H    0.996 --    43 C    0.985
   196   1 H    0.998 --    43 C    0.986
   197   1 H    0.969 --    44 N    0.950
   198   1 H    0.974 --    44 N    0.959
   199   1 H    0.992 --    45 C    0.948
   200   1 H    0.996 --    46 C    0.949
   201   1 H    0.998 --    48 C    0.966
   202   1 H    0.999 --    49 C    0.979
   203   1 H    0.998 --    49 C    0.978
   204   1 H    0.998 --    50 C    0.979
   205   1 H    0.997 --    50 C    0.983
   206   1 H    0.997 --    50 C    0.976
   207   1 H    0.998 --    51 C    0.987
   208   1 H    0.998 --    51 C    0.988
   209   1 H    0.999 --    51 C    0.984
   210   1 H    0.964 --    52 N    0.947
   211   1 H    0.953 --    52 N    0.908
   212   1 H    0.995 --    53 C    0.964
   213   1 H    0.990 --    56 C    0.961
   214   1 H    0.991 --    56 C    0.964
   215   1 H    0.998 --    58 C    0.971
   216   1 H    0.997 --    62 C    0.972
   217   1 H    0.994 --    63 C    0.967
   218   1 H    0.997 --    64 C    0.974
   219   1 H    0.996 --    65 C    0.972
   220   1 H    0.947 --    66 N    0.893
   221   1 H    0.992 --    67 C    0.953
   222   1 H    0.998 --    70 C    0.969
   223   1 H    0.998 --    71 C    0.979
   224   1 H    0.998 --    71 C    0.984
   225   1 H    0.996 --    71 C    0.983
   226   1 H    0.998 --    72 C    0.981
   227   1 H    0.997 --    72 C    0.984
   228   1 H    0.997 --    72 C    0.983
   229   1 H    0.945 --    73 N    0.895
   230   1 H    0.990 --    74 C    0.938
   231   1 H    0.992 --    77 C    0.952
   232   1 H    0.990 --    77 C    0.955
   233   1 H    0.995 --    80 C    0.963
   234   1 H    0.950 --    83 N    0.910
   235   1 H    0.994 --    84 C    0.955
   236   1 H    0.996 --    87 C    0.975
   237   1 H    0.995 --    87 C    0.970
   238   1 H    0.996 --    88 C    0.972
   239   1 H    0.996 --    88 C    0.977
   240   1 H    0.991 --    89 C    0.963
   241   1 H    0.996 --    89 C    0.967
   242   1 H    0.987 --    90 C    0.967
   243   1 H    0.986 --    90 C    0.968
   244   1 H    0.955 --    92 N    0.914
   245   1 H    0.990 --    93 C    0.939
   246   1 H    0.992 --    94 C    0.948
   247   1 H    0.994 --    96 C    0.962
   248   1 H    0.894 --    97 O    0.867
   249   1 H    0.996 --    98 C    0.981
   250   1 H    0.996 --    98 C    0.977
   251   1 H    0.993 --    98 C    0.978
   252   1 H    0.969 --    99 N    0.956
   253   1 H    0.968 --    99 N    0.952
   254   1 H    0.996 --   100 C    0.958
   255   1 H    0.997 --   103 C    0.976
   256   1 H    0.994 --   103 C    0.959
   257   1 H    0.997 --   105 C    0.960
   258   1 H    0.997 --   106 C    0.972
   259   1 H    0.998 --   107 C    0.969
   260   1 H    0.996 --   108 C    0.968
   261   1 H    0.876 --   110 O    0.730   312 H    0.116
   262   1 H    0.951 --   111 N    0.911
   263   1 H    0.995 --   112 C    0.962
   264   1 H    0.997 --   115 C    0.973
   265   1 H    0.998 --   116 C    0.988
   266   1 H    0.999 --   116 C    0.984
   267   1 H    0.996 --   116 C    0.981
   268   1 H    0.998 --   117 C    0.988
   269   1 H    0.997 --   117 C    0.985
   270   1 H    0.998 --   117 C    0.986
   271   1 H    0.956 --   118 N    0.925
   272   1 H    0.991 --   119 C    0.947
   273   1 H    0.997 --   122 C    0.985
   274   1 H    0.995 --   122 C    0.976
   275   1 H    0.997 --   122 C    0.978
   276   1 H    0.943 --   123 N    0.882
   277   1 H    0.988 --   124 C    0.927
   278   1 H    0.992 --   125 C    0.949
   279   1 H    0.993 --   127 C    0.962
   280   1 H    0.994 --   127 C    0.965
   281   1 H    0.998 --   129 C    0.971
   282   1 H    0.998 --   130 C    0.971
   283   1 H    0.998 --   131 C    0.970
   284   1 H    0.998 --   132 C    0.973
   285   1 H    0.998 --   133 C    0.973
   286   1 H    1.000 --   134 H    0.998
   287   1 H    1.000 --   135 H    0.980
   288   1 H    1.000 --   136 H    0.983
   289   1 H    1.000 --   137 H    0.974
   290   1 H    1.000 --   138 H    0.919
   291   1 H    0.999 --   139 H    0.918
   292   1 H    1.000 --   140 H    0.973
   293   1 H    0.999 --   141 H    0.958
   294   1 H    0.999 --   142 H    0.948
   295   1 H    1.000 --   143 H    0.987
   296   1 H    1.000 --   144 H    0.998
   297   1 H    1.000 --   145 H    0.972
   298   1 H    1.000 --   146 H    0.985
   299   1 H    1.000 --   147 H    0.974
   300   1 H    1.000 --   148 H    0.977
   301   1 H    1.000 --   149 H    0.992
   302   1 H    1.000 --   150 H    0.978
   303   1 H    1.000 --   151 H    0.967
   304   1 H    1.000 --   152 H    0.960
   305   1 H    1.000 --   153 H    0.972
   306   1 H    1.000 --   154 H    0.929
   307   1 H    1.000 --   155 H    0.954
   308   1 H    1.000 --   156 H    0.880
   309   1 H    0.921 --    91 N    0.904
   310   1 H    0.907 --    91 N    0.875
   311   1 H    0.911 --    91 N    0.899
   312   1 H    0.939 --    79 N    0.780   261 H    0.116
 ---------------------------------------------------------------------------

Topologies differ in total number of bonds
Writing topology from bond orders to xtbtopo.mol

molecular dipole:
                 x           y           z       tot (Debye)
 q only:      136.055      -2.931      37.971
   full:      135.856      -3.626      36.511     357.684
molecular quadrupole (traceless):
                xx          xy          yy          xz          yz          zz
 q only:    17809.100    -534.552  -10145.781    7841.351     -75.257   -7663.319
  q+dip:    17837.175    -696.332  -10093.447    7535.727     -91.094   -7743.728
   full:    17828.420    -690.334  -10092.083    7533.192     -94.863   -7736.337


           -------------------------------------------------
          | TOTAL ENERGY             -427.091396391870 Eh   |
          | GRADIENT NORM               1.410720019399 Eh/α |
          | HOMO-LUMO GAP               0.009463312735 eV   |
           -------------------------------------------------
########################################################################
[WARNING] Runtime exception occurred
-3- restart_readRestart: Dimension missmatch in restart file.
-2- restart_readRestart: Multiplicity missmatch in restart file.
-1- restart_readRestart: Number of electron missmatch in restart file.
########################################################################

------------------------------------------------------------------------
 * finished run on 2025/05/05 at 17:01:02.790     
------------------------------------------------------------------------
 total:
 * wall-time:     0 d,  0 h,  0 min,  2.568 sec
 *  cpu-time:     0 d,  0 h,  1 min, 19.811 sec
 * ratio c/w:    31.078 speedup
 SCF:
 * wall-time:     0 d,  0 h,  0 min,  2.528 sec
 *  cpu-time:     0 d,  0 h,  1 min, 18.699 sec
 * ratio c/w:    31.128 speedup

