      -----------------------------------------------------------      
     |                   =====================                   |     
     |                           x T B                           |     
     |                   =====================                   |     
     |                         S. Grimme                         |     
     |          Mulliken Center for Theoretical Chemistry        |     
     |                    University of Bonn                     |     
      -----------------------------------------------------------      

   * xtb version 6.7.1 (edcfbbe) compiled by 'conda@afd1a870197c' on 2025-04-11

   xtb is free software: you can redistribute it and/or modify it under
   the terms of the GNU Lesser General Public License as published by
   the Free Software Foundation, either version 3 of the License, or
   (at your option) any later version.
   
   xtb is distributed in the hope that it will be useful,
   but WITHOUT ANY WARRANTY; without even the implied warranty of
   MERCHANTABILITY or FITNESS FOR A PARTICULAR PURPOSE.  See the
   GNU Lesser General Public License for more details.
   
   Cite this work as:
   * C. Bannwarth, E. Caldeweyher, S. Ehlert, A. Hansen, P. Pracht,
     J. Seibert, S. Spicher, S. Grimme, WIREs Comput. Mol. Sci., 2020, 11,
     e01493. DOI: 10.1002/wcms.1493
   
   for GFN2-xTB:
   * C. Bannwarth, S. Ehlert and S. Grimme., J. Chem. Theory Comput., 2019,
     15, 1652-1671. DOI: 10.1021/acs.jctc.8b01176
   for GFN1-xTB:
   * S. Grimme, C. Bannwarth, P. Shushkov, J. Chem. Theory Comput., 2017,
     13, 1989-2009. DOI: 10.1021/acs.jctc.7b00118
   for GFN0-xTB:
   * P. Pracht, E. Caldeweyher, S. Ehlert, S. Grimme, ChemRxiv, 2019, preprint.
     DOI: 10.26434/chemrxiv.8326202.v1
   for GFN-FF:
   * S. Spicher and S. Grimme, Angew. Chem. Int. Ed., 2020, 59, 15665-15673.
     DOI: 10.1002/anie.202004239
   
   for ALPB and GBSA implicit solvation:
   * S. Ehlert, M. Stahn, S. Spicher, S. Grimme, J. Chem. Theory Comput.,
     2021, 17, 4250-4261. DOI: 10.1021/acs.jctc.1c00471
   
   for ddCOSMO and CPCM-X implicit solvation:
   * M. Stahn, S. Ehlert, S. Grimme, J. Phys. Chem. A,
     2023, XX, XXXX-XXXX. DOI: 10.1021/acs.jpca.3c04382
   
   for DFT-D4:
   * E. Caldeweyher, C. Bannwarth and S. Grimme, J. Chem. Phys., 2017,
     147, 034112. DOI: 10.1063/1.4993215
   * E. Caldeweyher, S. Ehlert, A. Hansen, H. Neugebauer, S. Spicher,
     C. Bannwarth and S. Grimme, J. Chem. Phys., 2019, 150, 154122.
     DOI: 10.1063/1.5090222
   * E. Caldeweyher, J.-M. Mewes, S. Ehlert and S. Grimme, Phys. Chem. Chem. Phys.
     2020, 22, 8499-8512. DOI: 10.1039/D0CP00502A
   
   for sTDA-xTB:
   * S. Grimme and C. Bannwarth, J. Chem. Phys., 2016, 145, 054103.
     DOI: 10.1063/1.4959605
   
   in the mass-spec context:
   * V. Asgeirsson, C. Bauer and S. Grimme, Chem. Sci., 2017, 8, 4879.
     DOI: 10.1039/c7sc00601b
   * J. Koopman and S. Grimme, ACS Omega 2019, 4, 12, 15120-15133.
     DOI: 10.1021/acsomega.9b02011
   
   for metadynamics refer to:
   * S. Grimme, J. Chem. Theory Comput., 2019, 155, 2847-2862
     DOI: 10.1021/acs.jctc.9b00143
   
   for SPH calculations refer to:
   * S. Spicher and S. Grimme, J. Chem. Theory Comput., 2021, 17, 1701-1714
     DOI: 10.1021/acs.jctc.0c01306
   
   for ONIOM refer to:
   * C. Plett, A. Katbashev, S. Ehlert, S. Grimme, M. Bursch,
     Phys. Chem. Chem. Phys., 2023, 25, 17860-17868. DOI: 10.1039/D3CP02178E
   
   for DIPRO refer to:
   * J. Kohn, N. Gildemeister, S. Grimme, D. Fazzi, A. Hansen,
     J. Chem. Phys., 2023, just accepted.
   
   for PTB refer to:
   * S. Grimme, M. Mueller, A. Hansen, J. Chem. Phys., 2023, 158, 124111.
     DOI: 10.1063/5.0137838
   
   with help from (in alphabetical order)
   P. Atkinson, C. Bannwarth, F. Bohle, G. Brandenburg, E. Caldeweyher
   M. Checinski, S. Dohm, S. Ehlert, S. Ehrlich, I. Gerasimov, C. Hölzer
   A. Katbashev, J. Kohn, J. Koopman, C. Lavigne, S. Lehtola, F. März, M. Müller,
   F. Musil, H. Neugebauer, J. Pisarek, C. Plett, P. Pracht, F. Pultar,
   J. Seibert, P. Shushkov, S. Spicher, M. Stahn, M. Steiner, T. Strunk,
   J. Stückrath, T. Rose, and J. Unsleber
   
 * started run on 2025/05/05 at 17:01:02.811     
   ID    Z sym.   atoms
    1    7 N      1, 5, 13, 19, 28, 36, 44, 52, 60, 66, 73, 79, 82, 83, 91,
                  92, 99, 111, 118, 123
    2    6 C      2, 3, 6, 7, 9-12, 14-18, 20, 21, 23-25, 29, 30, 32, 33, 35,
                  37, 38, 40-43, 45, 46, 48-51, 53, 54, 56-59, 61-65, 67, 68,
                  70-72, 74, 75, 77, 78, 80, 81, 84, 85, 87-90, 93, 94, 96,
                  98, 100, 101, 103-109, 112, 113, 115-117, 119, 120, 122,
                  124, 125, 127-133
    3    8 O      4, 8, 22, 26, 27, 31, 39, 47, 55, 69, 76, 86, 95, 97, 102,
                  110, 114, 121, 126
    4   16 S      34
    5    1 H      134-312

           -------------------------------------------------
          |                Calculation Setup                |
           -------------------------------------------------

          program call               : xtb /tmp/tmpl9847ai7/HIE/input.xyz --alpb ether --chrg 1 --input /tmp/tmpl9847ai7/HIE/constraints.inp --gfn 2
          hostname                   : fedora
          coordinate file            : /tmp/tmpl9847ai7/HIE/input.xyz
          omp threads                :                    32


molecular fragmentation (1/2 indicates fragments):
111111111111111111111111111111111111111111122222222222222222222222222222
222222222222222222222222222222222222222222222222222222222222222222222222
222222222222111111111111111111111111111111111111111122222222222222222222
222222222222222222222222222222222222222222222222222222222222222222222222
222222222222222222222222
# atoms in fragment 1/2:    83   229
 fragment masses (1/2) :      616.73     1296.88
CMA distance (Bohr)    :  12.253
constraining FC (au)   :  0.0500

           -------------------------------------------------
          |                 G F N 2 - x T B                 |
           -------------------------------------------------

        Reference                      10.1021/acs.jctc.8b01176
      * Hamiltonian:
        H0-scaling (s, p, d)           1.850000    2.230000    2.230000
        zeta-weighting                 0.500000
      * Dispersion:
        s8                             2.700000
        a1                             0.520000
        a2                             5.000000
        s9                             5.000000
      * Repulsion:
        kExp                           1.500000    1.000000
        rExp                           1.000000
      * Coulomb:
        alpha                          2.000000
        third order                    shell-resolved
        anisotropic                    true
        a3                             3.000000
        a5                             4.000000
        cn-shift                       1.200000
        cn-exp                         4.000000
        max-rad                        5.000000

      * Solvation model:               ALPB
        Solvent                        ether
        Parameter file                 internal GFN2-xTB/ALPB
        Dielectric constant                4.3300E+00
        Reference state                gsolv [1 M gas/solution]
        Free energy shift                  4.9534E-03 Eh       3.1083E+00 kcal/mol
        Temperature                        2.9815E+02 K
        Density                            7.1300E-01 kg/L
        Solvent mass                       7.4120E+01 g/mol
        Interaction kernel             P16
        Born radius scaling (c1)           1.5847E+00
        Born radii integrator          GBOBC
        Born offset                        0.0000E+00 a0       0.0000E+00 AA
        H-bond correction              true
        Ion screening                  false
        Surface tension                    1.0000E-05 Eh       1.5569E+01 dyn/cm
        Grid points                               230 per atom

          ...................................................
          :                      SETUP                      :
          :.................................................:
          :  # basis functions                 717          :
          :  # atomic orbitals                 716          :
          :  # shells                          446          :
          :  # electrons                       770          :
          :  max. iterations                   250          :
          :  Hamiltonian                  GFN2-xTB          :
          :  restarted?                      false          :
          :  GBSA solvation                   true          :
          :  PC potential                    false          :
          :  electronic temp.          300.0000000     K    :
          :  accuracy                    1.0000000          :
          :  -> integral cutoff          0.2500000E+02      :
          :  -> integral neglect         0.1000000E-07      :
          :  -> SCF convergence          0.1000000E-05 Eh   :
          :  -> wf. convergence          0.1000000E-03 e    :
          :  Broyden damping             0.4000000          :
          :  net charge                          1          :
          :  unpaired electrons                  0          :
          ...................................................

 iter      E             dE          RMSdq      gap      omega  full diag
   1   -432.8367991 -0.432837E+03  0.424E+00    0.21       0.0  T
   2   -432.3808916  0.455907E+00  0.307E+00    0.15       1.0  T
   3   -433.6204376 -0.123955E+01  0.236E+00    0.40       1.0  T
   4   -434.2321103 -0.611673E+00  0.191E+00    0.06       1.0  T
   5   -434.0531269  0.178983E+00  0.155E+00    0.19       1.0  T
   6   -434.3563748 -0.303248E+00  0.136E+00    0.08       1.0  T
   7   -433.9959326  0.360442E+00  0.146E+00    0.04       1.0  T
   8   -434.6220302 -0.626098E+00  0.934E-01    0.16       1.0  T
   9   -434.5860558  0.359744E-01  0.908E-01    0.10       1.0  T
  10   -434.6107198 -0.246640E-01  0.872E-01    0.21       1.0  T
  11   -434.0769594  0.533760E+00  0.123E+00    0.05       1.0  T
  12   -434.4200688 -0.343109E+00  0.981E-01    0.02       1.0  T
  13   -434.6754177 -0.255349E+00  0.713E-01    0.04       1.0  T
  14   -434.4889348  0.186483E+00  0.144E+00    0.09       1.0  T
  15   -434.7214931 -0.232558E+00  0.700E-01    0.08       1.0  T
  16   -434.7636886 -0.421954E-01  0.613E-01    0.06       1.0  T
  17   -434.7451491  0.185395E-01  0.647E-01    0.07       1.0  T
  18   -434.8648950 -0.119746E+00  0.424E-01    0.06       1.0  T
  19   -434.8916707 -0.267757E-01  0.355E-01    0.02       1.0  T
  20   -434.8771259  0.145448E-01  0.397E-01    0.05       1.0  T
  21   -434.9182185 -0.410926E-01  0.283E-01    0.02       1.0  T
  22   -434.9193305 -0.111193E-02  0.279E-01    0.02       1.0  T
  23   -434.9197105 -0.380032E-03  0.272E-01    0.03       1.0  T
  24   -434.9320047 -0.122942E-01  0.328E-01    0.00       1.0  T
  25   -434.9395508 -0.754616E-02  0.167E-01    0.01       1.0  T
  26   -434.9294192  0.101316E-01  0.190E-01    0.00       1.0  T
  27   -434.9315728 -0.215358E-02  0.180E-01    0.00       1.0  T
  28   -434.9363939 -0.482118E-02  0.197E-01    0.01       1.0  T
  29   -434.9445379 -0.814398E-02  0.109E-01    0.01       1.0  T
  30   -434.9487728 -0.423492E-02  0.558E-02    0.00       1.0  T
  31   -434.9479573  0.815490E-03  0.651E-02    0.00       1.0  T
  32   -434.9490314 -0.107403E-02  0.481E-02    0.00       1.0  T
  33   -434.9497716 -0.740217E-03  0.297E-02    0.00       1.0  T
  34   -434.9501104 -0.338764E-03  0.150E-02    0.00       1.0  T
  35   -434.9501624 -0.520887E-04  0.881E-03    0.01       1.0  T
  36   -434.9501750 -0.125748E-04  0.801E-03    0.01       1.0  T
  37   -434.9501785 -0.352312E-05  0.677E-03    0.01       1.0  T
  38   -434.9501948 -0.162576E-04  0.324E-03    0.01       1.7  T
  39   -434.9501989 -0.405118E-05  0.114E-03    0.01       5.0  T
  40   -434.9501992 -0.314801E-06  0.816E-04    0.01       6.9  T
  41   -434.9501991  0.330112E-07  0.789E-04    0.01       7.2  T

   *** convergence criteria satisfied after 41 iterations ***

         #    Occupation            Energy/Eh            Energy/eV
      -------------------------------------------------------------
         1        2.0000           -0.7659918             -20.8437
       ...           ...                  ...                  ...
       379        1.9598           -0.3836946             -10.4409
       380        1.9535           -0.3835521             -10.4370
       381        1.9419           -0.3833354             -10.4311
       382        1.8666           -0.3825077             -10.4086
       383        1.7941           -0.3820579             -10.3963
       384        1.6208           -0.3813812             -10.3779
       385        1.0874           -0.3801675             -10.3449 (HOMO)
       386        0.9765           -0.3799564             -10.3391 (LUMO)
       387        0.8363           -0.3796871             -10.3318
       388                         -0.3275381              -8.9128
       389                         -0.3129412              -8.5156
       390                         -0.3090472              -8.4096
       ...                                ...                  ...
       716                          1.1643906              31.6847
      -------------------------------------------------------------
                  HL-Gap            0.0002111 Eh            0.0057 eV
             Fermi-level           -0.3800010 Eh          -10.3404 eV

 SCC (total)                   0 d,  0 h,  0 min,  2.935 sec
 SCC setup                      ...        0 min,  0.006 sec (  0.195%)
 Dispersion                     ...        0 min,  0.021 sec (  0.708%)
 classical contributions        ...        0 min,  0.001 sec (  0.027%)
 integral evaluation            ...        0 min,  0.039 sec (  1.318%)
 iterations                     ...        0 min,  2.740 sec ( 93.366%)
 molecular gradient             ...        0 min,  0.125 sec (  4.268%)
 printout                       ...        0 min,  0.003 sec (  0.118%)

         :::::::::::::::::::::::::::::::::::::::::::::::::::::
         ::                     SUMMARY                     ::
         :::::::::::::::::::::::::::::::::::::::::::::::::::::
         :: total energy            -427.154713518903 Eh    ::
         :: total w/o Gsasa/hb      -427.050104877364 Eh    ::
         :: gradient norm              1.407106842795 Eh/a0 ::
         :: HOMO-LUMO gap              0.005745094735 eV    ::
         ::.................................................::
         :: SCC energy              -434.909772815317 Eh    ::
         :: -> isotropic ES            0.895391414199 Eh    ::
         :: -> anisotropic ES          0.085888636698 Eh    ::
         :: -> anisotropic XC          0.293348067936 Eh    ::
         :: -> dispersion             -0.389973992168 Eh    ::
         :: -> Gsolv                  -0.234327930193 Eh    ::
         ::    -> Gelec               -0.129719288654 Eh    ::
         ::    -> Gsasa               -0.093479891914 Eh    ::
         ::    -> Ghb                 -0.016082187202 Eh    ::
         ::    -> Gshift               0.004953437577 Eh    ::
         :: repulsion energy           7.755059296414 Eh    ::
         :: add. restraining           0.000000000000 Eh    ::
         :: total charge               1.000000000008 e     ::
         :::::::::::::::::::::::::::::::::::::::::::::::::::::

           -------------------------------------------------
          |                Property Printout                |
           -------------------------------------------------

    * Orbital Energies and Occupations

         #    Occupation            Energy/Eh            Energy/eV
      -------------------------------------------------------------
         1        2.0000           -0.7659918             -20.8437
       ...           ...                  ...                  ...
       373        2.0000           -0.3995163             -10.8714
       374        2.0000           -0.3988117             -10.8522
       375        2.0000           -0.3979932             -10.8299
       376        2.0000           -0.3955093             -10.7624
       377        2.0000           -0.3948289             -10.7438
       378        1.9630           -0.3837741             -10.4430
       379        1.9598           -0.3836946             -10.4409
       380        1.9535           -0.3835521             -10.4370
       381        1.9419           -0.3833354             -10.4311
       382        1.8666           -0.3825077             -10.4086
       383        1.7941           -0.3820579             -10.3963
       384        1.6208           -0.3813812             -10.3779
       385        1.0874           -0.3801675             -10.3449 (HOMO)
       386        0.9765           -0.3799564             -10.3391 (LUMO)
       387        0.8363           -0.3796871             -10.3318
       388                         -0.3275381              -8.9128
       389                         -0.3129412              -8.5156
       390                         -0.3090472              -8.4096
       391                         -0.2851797              -7.7601
       392                         -0.2613382              -7.1114
       393                         -0.2595827              -7.0636
       394                         -0.2543127              -6.9202
       395                         -0.2494943              -6.7891
       396                         -0.2412230              -6.5640
       ...                                ...                  ...
       716                          1.1643906              31.6847
      -------------------------------------------------------------
                  HL-Gap            0.0002111 Eh            0.0057 eV
             Fermi-level           -0.3800010 Eh          -10.3404 eV

     #   Z          covCN         q      C6AA      α(0)
     1   7 N        2.629    -0.352    29.078     8.009
     2   6 C        3.741    -0.019    20.996     6.538
     3   6 C        2.756     0.273    22.378     7.746
     4   8 O        0.859    -0.491    23.584     6.511
     5   7 N        2.689    -0.158    24.424     7.340
     6   6 C        3.798     0.028    20.112     6.386
     7   6 C        2.754     0.271    22.413     7.752
     8   8 O        0.858    -0.488    23.524     6.503
     9   6 C        3.809    -0.076    21.942     6.668
    10   6 C        3.037     0.006    27.848     8.656
    11   6 C        3.017     0.014    27.673     8.629
    12   6 C        3.112    -0.023    28.432     8.735
    13   7 N        1.914    -0.271    27.881     7.829
    14   6 C        3.057     0.067    26.454     8.435
    15   6 C        2.909    -0.031    28.771     8.795
    16   6 C        2.907    -0.030    28.743     8.791
    17   6 C        2.914    -0.039    28.970     8.826
    18   6 C        2.922    -0.038    28.956     8.824
    19   7 N        2.694    -0.147    24.187     7.304
    20   6 C        3.798     0.022    20.214     6.402
    21   6 C        2.762     0.269    22.461     7.761
    22   8 O        0.857    -0.484    23.438     6.491
    23   6 C        3.809    -0.063    21.698     6.631
    24   6 C        3.806    -0.088    22.176     6.704
    25   6 C        2.688     0.374    20.663     7.439
    26   8 O        0.856    -0.543    24.753     6.670
    27   8 O        0.856    -0.534    24.557     6.644
    28   7 N        2.687    -0.157    24.403     7.337
    29   6 C        3.798     0.013    20.356     6.424
    30   6 C        2.758     0.271    22.423     7.754
    31   8 O        0.859    -0.488    23.515     6.502
    32   6 C        3.830    -0.077    21.956     6.667
    33   6 C        3.798    -0.025    21.023     6.529
    34  16 S        1.969    -0.138   146.865    20.397
    35   6 C        3.751    -0.072    21.933     6.679
    36   7 N        2.694    -0.171    24.711     7.383
    37   6 C        3.792     0.025    20.156     6.394
    38   6 C        2.772     0.197    23.802     7.990
    39   8 O        0.856    -0.348    20.661     6.094
    40   6 C        3.820    -0.078    21.965     6.670
    41   6 C        3.853    -0.017    20.850     6.494
    42   6 C        3.767    -0.111    22.670     6.786
    43   6 C        3.766    -0.123    22.904     6.821
    44   7 N        2.627    -0.359    29.270     8.035
    45   6 C        3.787     0.022    20.210     6.403
    46   6 C        2.764     0.200    23.748     7.981
    47   8 O        0.856    -0.362    20.946     6.136
    48   6 C        3.854    -0.020    20.898     6.502
    49   6 C        3.804    -0.063    21.707     6.633
    50   6 C        3.760    -0.113    22.702     6.792
    51   6 C        3.753    -0.107    22.607     6.780
    52   7 N        2.648    -0.322    28.276     7.897
    53   6 C        3.788     0.035    20.002     6.370
    54   6 C        2.768     0.273    22.387     7.749
    55   8 O        0.859    -0.486    23.481     6.497
    56   6 C        3.814    -0.069    21.802     6.646
    57   6 C        3.056     0.003    27.901     8.662
    58   6 C        3.038     0.024    27.429     8.590
    59   6 C        3.106    -0.027    28.534     8.752
    60   7 N        1.916    -0.253    27.440     7.767
    61   6 C        3.082     0.067    26.420     8.426
    62   6 C        2.906    -0.031    28.772     8.795
    63   6 C        2.905    -0.026    28.657     8.778
    64   6 C        2.909    -0.044    29.100     8.846
    65   6 C        2.916    -0.035    28.863     8.810
    66   7 N        2.700    -0.167    24.616     7.369
    67   6 C        3.801     0.017    20.292     6.414
    68   6 C        2.775     0.272    22.398     7.751
    69   8 O        0.859    -0.500    23.790     6.540
    70   6 C        3.853    -0.019    20.875     6.498
    71   6 C        3.754    -0.120    22.859     6.818
    72   6 C        3.760    -0.123    22.911     6.824
    73   7 N        2.686    -0.162    24.509     7.353
    74   6 C        3.800     0.018    20.275     6.411
    75   6 C        2.749     0.271    22.426     7.754
    76   8 O        0.858    -0.491    23.580     6.511
    77   6 C        3.809    -0.075    21.923     6.665
    78   6 C        3.073     0.059    26.607     8.457
    79   7 N        1.983    -0.266    27.713     7.807
    80   6 C        3.047    -0.027    28.635     8.776
    81   6 C        2.092     0.040    29.882     8.832
    82   7 N        2.830    -0.059    22.387     7.027
    83   7 N        2.687    -0.171    24.706     7.382
    84   6 C        3.790     0.018    20.281     6.414
    85   6 C        2.753     0.271    22.416     7.753
    86   8 O        0.859    -0.471    23.148     6.451
    87   6 C        3.808    -0.072    21.867     6.657
    88   6 C        3.802    -0.090    22.219     6.711
    89   6 C        3.802    -0.090    22.207     6.709
    90   6 C        3.732    -0.048    21.531     6.623
    91   7 N        3.485    -0.161    24.478     7.348
    92   7 N        2.687    -0.161    24.483     7.349
    93   6 C        3.789     0.015    20.338     6.423
    94   6 C        2.766     0.198    23.779     7.986
    95   8 O        0.856    -0.354    20.782     6.112
    96   6 C        3.727     0.106    18.929     6.212
    97   8 O        1.652    -0.472    22.300     6.375
    98   6 C        3.757    -0.143    23.300     6.882
    99   7 N        2.633    -0.340    28.759     7.965
   100   6 C        3.788     0.028    20.124     6.389
   101   6 C        2.757     0.268    22.481     7.764
   102   8 O        0.857    -0.501    23.799     6.541
   103   6 C        3.813    -0.077    21.964     6.671
   104   6 C        2.959    -0.007    28.195     8.709
   105   6 C        2.923    -0.054    29.341     8.883
   106   6 C        2.928    -0.047    29.176     8.858
   107   6 C        2.916    -0.077    29.920     8.970
   108   6 C        2.917    -0.061    29.525     8.910
   109   6 C        2.848     0.156    24.625     8.133
   110   8 O        1.662    -0.404    20.924     6.175
   111   7 N        2.685    -0.161    24.494     7.350
   112   6 C        3.786     0.009    20.433     6.438
   113   6 C        2.755     0.274    22.359     7.743
   114   8 O        0.862    -0.487    23.501     6.500
   115   6 C        3.841    -0.019    20.883     6.501
   116   6 C        3.753    -0.118    22.825     6.813
   117   6 C        3.752    -0.120    22.861     6.818
   118   7 N        2.692    -0.169    24.655     7.375
   119   6 C        3.800     0.020    20.240     6.405
   120   6 C        2.763     0.269    22.452     7.760
   121   8 O        0.859    -0.502    23.836     6.546
   122   6 C        3.766    -0.117    22.776     6.802
   123   7 N        2.686    -0.172    24.723     7.385
   124   6 C        3.797     0.032    20.037     6.374
   125   6 C        2.765     0.193    23.868     8.001
   126   8 O        0.856    -0.370    21.095     6.158
   127   6 C        3.820    -0.073    21.885     6.658
   128   6 C        2.969     0.009    27.810     8.650
   129   6 C        2.923    -0.041    29.025     8.835
   130   6 C        2.929    -0.049    29.215     8.864
   131   6 C        2.919    -0.038    28.940     8.822
   132   6 C        2.915    -0.038    28.953     8.823
   133   6 C        2.920    -0.038    28.945     8.823
   134   1 H        0.980    -0.000     3.051     2.729
   135   1 H        0.980     0.008     2.916     2.668
   136   1 H        0.980    -0.011     3.239     2.812
   137   1 H        0.980     0.013     2.841     2.634
   138   1 H        0.980     0.026     2.633     2.535
   139   1 H        0.980    -0.022     3.456     2.905
   140   1 H        0.980     0.006     2.944     2.681
   141   1 H        0.980     0.001     3.032     2.721
   142   1 H        0.980    -0.014     3.302     2.840
   143   1 H        0.980     0.004     2.981     2.698
   144   1 H        0.980    -0.001     3.064     2.735
   145   1 H        0.980    -0.007     3.166     2.780
   146   1 H        0.980     0.014     2.813     2.621
   147   1 H        0.980     0.018     2.749     2.591
   148   1 H        0.980     0.009     2.893     2.658
   149   1 H        0.980     0.006     2.950     2.684
   150   1 H        0.980     0.000     3.041     2.725
   151   1 H        0.980    -0.005     3.138     2.768
   152   1 H        0.980     0.017     2.772     2.602
   153   1 H        0.980    -0.007     3.174     2.784
   154   1 H        0.980    -0.016     3.346     2.858
   155   1 H        0.980    -0.011     3.242     2.814
   156   1 H        0.980     0.029     2.593     2.516
   157   1 H        0.860     0.179     1.222     1.731
   158   1 H        0.860     0.162     1.320     1.800
   159   1 H        0.927     0.045     2.381     2.413
   160   1 H        0.927     0.079     1.987     2.204
   161   1 H        0.861     0.204     1.084     1.631
   162   1 H        0.927     0.078     1.997     2.210
   163   1 H        0.927     0.087     1.910     2.161
   164   1 H        0.927     0.071     2.073     2.251
   165   1 H        0.929     0.041     2.434     2.440
   166   1 H        0.929     0.050     2.321     2.382
   167   1 H        0.929     0.064     2.147     2.291
   168   1 H        0.929     0.051     2.301     2.372
   169   1 H        0.929     0.056     2.243     2.342
   170   1 H        0.861     0.226     0.984     1.554
   171   1 H        0.927     0.083     1.946     2.182
   172   1 H        0.927     0.053     2.283     2.363
   173   1 H        0.927     0.069     2.099     2.266
   174   1 H        0.927     0.072     2.062     2.245
   175   1 H        0.927     0.071     2.079     2.255
   176   1 H        0.861     0.207     1.071     1.621
   177   1 H        0.927     0.098     1.804     2.100
   178   1 H        0.927     0.067     2.118     2.276
   179   1 H        0.927     0.072     2.068     2.249
   180   1 H        0.927     0.077     2.008     2.216
   181   1 H        0.927     0.070     2.086     2.258
   182   1 H        0.927     0.076     2.019     2.222
   183   1 H        0.927     0.068     2.111     2.272
   184   1 H        0.927     0.065     2.140     2.288
   185   1 H        0.861     0.234     0.949     1.526
   186   1 H        0.926     0.094     1.840     2.121
   187   1 H        0.929     0.076     2.022     2.223
   188   1 H        0.927     0.064     2.152     2.294
   189   1 H        0.927     0.066     2.129     2.281
   190   1 H        0.927     0.047     2.358     2.401
   191   1 H        0.927     0.044     2.402     2.423
   192   1 H        0.927     0.035     2.512     2.478
   193   1 H        0.926     0.037     2.491     2.468
   194   1 H        0.927     0.046     2.367     2.406
   195   1 H        0.927     0.046     2.365     2.405
   196   1 H        0.927     0.041     2.436     2.441
   197   1 H        0.860     0.172     1.260     1.758
   198   1 H        0.860     0.159     1.344     1.816
   199   1 H        0.927     0.081     1.973     2.197
   200   1 H        0.929     0.061     2.188     2.313
   201   1 H        0.926     0.044     2.395     2.420
   202   1 H        0.927     0.030     2.583     2.513
   203   1 H        0.927     0.040     2.448     2.446
   204   1 H        0.927     0.043     2.414     2.430
   205   1 H        0.927     0.047     2.357     2.401
   206   1 H        0.927     0.049     2.330     2.387
   207   1 H        0.927     0.045     2.389     2.417
   208   1 H        0.926     0.037     2.486     2.465
   209   1 H        0.927     0.036     2.504     2.474
   210   1 H        0.860     0.183     1.200     1.716
   211   1 H        0.860     0.211     1.053     1.608
   212   1 H        0.927     0.056     2.244     2.343
   213   1 H        0.927     0.065     2.142     2.288
   214   1 H        0.927     0.064     2.149     2.292
   215   1 H        0.929     0.038     2.472     2.458
   216   1 H        0.929     0.053     2.286     2.364
   217   1 H        0.929     0.077     2.007     2.215
   218   1 H        0.929     0.057     2.229     2.335
   219   1 H        0.929     0.061     2.187     2.312
   220   1 H        0.861     0.231     0.960     1.535
   221   1 H        0.927     0.085     1.929     2.172
   222   1 H        0.927     0.047     2.355     2.400
   223   1 H        0.927     0.047     2.356     2.400
   224   1 H        0.927     0.039     2.466     2.456
   225   1 H        0.927     0.053     2.284     2.363
   226   1 H        0.927     0.046     2.364     2.404
   227   1 H        0.927     0.050     2.317     2.380
   228   1 H        0.927     0.053     2.286     2.364
   229   1 H        0.861     0.233     0.954     1.530
   230   1 H        0.927     0.095     1.835     2.118
   231   1 H        0.927     0.086     1.921     2.168
   232   1 H        0.927     0.093     1.852     2.128
   233   1 H        0.929     0.060     2.196     2.317
   234   1 H        0.861     0.224     0.992     1.560
   235   1 H        0.927     0.074     2.044     2.236
   236   1 H        0.927     0.064     2.153     2.295
   237   1 H        0.927     0.067     2.116     2.274
   238   1 H        0.927     0.059     2.205     2.322
   239   1 H        0.927     0.065     2.142     2.289
   240   1 H        0.927     0.092     1.858     2.131
   241   1 H        0.926     0.065     2.141     2.288
   242   1 H        0.927     0.116     1.648     2.008
   243   1 H        0.927     0.118     1.633     1.998
   244   1 H        0.861     0.211     1.052     1.607
   245   1 H        0.927     0.099     1.796     2.095
   246   1 H        0.929     0.087     1.907     2.159
   247   1 H        0.927     0.075     2.026     2.226
   248   1 H        0.804     0.325     0.650     1.266
   249   1 H        0.927     0.063     2.160     2.298
   250   1 H        0.927     0.065     2.138     2.287
   251   1 H        0.927     0.072     2.060     2.245
   252   1 H        0.860     0.173     1.253     1.754
   253   1 H        0.860     0.180     1.217     1.728
   254   1 H        0.927     0.059     2.211     2.325
   255   1 H        0.927     0.054     2.276     2.359
   256   1 H        0.927     0.062     2.170     2.303
   257   1 H        0.929     0.051     2.306     2.375
   258   1 H        0.929     0.049     2.326     2.385
   259   1 H        0.929     0.055     2.262     2.352
   260   1 H        0.929     0.060     2.200     2.319
   261   1 H        0.807     0.339     0.614     1.230
   262   1 H        0.861     0.222     1.001     1.567
   263   1 H        0.927     0.073     2.051     2.240
   264   1 H        0.927     0.051     2.313     2.378
   265   1 H        0.927     0.048     2.350     2.397
   266   1 H        0.927     0.036     2.498     2.472
   267   1 H        0.927     0.054     2.267     2.354
   268   1 H        0.927     0.049     2.333     2.389
   269   1 H        0.926     0.050     2.315     2.379
   270   1 H        0.927     0.048     2.340     2.392
   271   1 H        0.861     0.210     1.058     1.611
   272   1 H        0.927     0.096     1.821     2.110
   273   1 H        0.927     0.056     2.248     2.345
   274   1 H        0.926     0.072     2.063     2.246
   275   1 H        0.927     0.053     2.288     2.366
   276   1 H        0.861     0.239     0.926     1.507
   277   1 H        0.927     0.106     1.729     2.056
   278   1 H        0.929     0.084     1.943     2.179
   279   1 H        0.927     0.085     1.929     2.172
   280   1 H        0.926     0.070     2.087     2.259
   281   1 H        0.929     0.042     2.422     2.433
   282   1 H        0.929     0.039     2.461     2.453
   283   1 H        0.929     0.041     2.438     2.442
   284   1 H        0.929     0.045     2.381     2.413
   285   1 H        0.929     0.040     2.448     2.447
   286   1 H        0.980     0.000     3.045     2.727
   287   1 H        0.980     0.000     3.046     2.727
   288   1 H        0.980     0.010     2.887     2.655
   289   1 H        0.980    -0.013     3.278     2.829
   290   1 H        0.980    -0.027     3.551     2.945
   291   1 H        0.980     0.023     2.680     2.558
   292   1 H        0.980    -0.010     3.220     2.804
   293   1 H        0.980     0.009     2.892     2.657
   294   1 H        0.980     0.024     2.669     2.553
   295   1 H        0.980    -0.004     3.119     2.760
   296   1 H        0.980     0.001     3.034     2.722
   297   1 H        0.980     0.007     2.925     2.673
   298   1 H        0.980    -0.015     3.316     2.846
   299   1 H        0.980    -0.016     3.349     2.859
   300   1 H        0.980    -0.010     3.232     2.809
   301   1 H        0.980    -0.006     3.155     2.776
   302   1 H        0.980     0.003     3.004     2.708
   303   1 H        0.980     0.006     2.955     2.686
   304   1 H        0.980    -0.014     3.311     2.843
   305   1 H        0.980     0.001     3.035     2.722
   306   1 H        0.980     0.010     2.887     2.655
   307   1 H        0.980    -0.003     3.098     2.750
   308   1 H        0.980    -0.008     3.193     2.792
   309   1 H        0.860     0.280     0.775     1.379
   310   1 H        0.860     0.305     0.700     1.311
   311   1 H        0.860     0.298     0.719     1.328
   312   1 H        0.858     0.189     1.164     1.690

 Mol. C6AA /au·bohr⁶  :     848725.406080
 Mol. C8AA /au·bohr⁸  :   18685689.669468
 Mol. α(0) /au        :       1405.602966


Wiberg/Mayer (AO) data.
largest (>0.10) Wiberg bond orders for each atom

 ---------------------------------------------------------------------------
     #   Z sym  total        # sym  WBO       # sym  WBO       # sym  WBO
 ---------------------------------------------------------------------------
     1   7 N    2.969 --     2 C    1.016   158 H    0.959   157 H    0.954
     2   6 C    3.977 --     1 N    1.016   160 H    0.972     3 C    0.960
                           159 H    0.956
     3   6 C    3.946 --     4 O    1.631     5 N    1.302     2 C    0.960
     4   8 O    1.935 --     3 C    1.631     5 N    0.194
     5   7 N    3.473 --     3 C    1.302     6 C    0.983   161 H    0.927
                             4 O    0.194
     6   6 C    3.948 --     5 N    0.983     9 C    0.951   162 H    0.951
                             7 C    0.932
     7   6 C    3.949 --     8 O    1.631    19 N    1.312     6 C    0.932
     8   8 O    1.940 --     7 C    1.631    19 N    0.196
     9   6 C    3.978 --    10 C    1.028   164 H    0.971     6 C    0.951
                           163 H    0.944
    10   6 C    3.717 --    11 C    1.456    12 C    1.134     9 C    1.028
    11   6 C    3.963 --    10 C    1.456    13 N    1.351   165 H    0.971
    12   6 C    3.944 --    15 C    1.392    14 C    1.231    10 C    1.134
    13   7 N    2.691 --    11 C    1.351    14 C    1.233
    14   6 C    3.968 --    16 C    1.333    13 N    1.233    12 C    1.231
    15   6 C    3.900 --    17 C    1.403    12 C    1.392   166 H    0.967
    16   6 C    3.878 --    18 C    1.440    14 C    1.333   167 H    0.967
    17   6 C    3.912 --    15 C    1.403    18 C    1.402   168 H    0.973
    18   6 C    3.950 --    16 C    1.440    17 C    1.402   169 H    0.968
    19   7 N    3.487 --     7 C    1.312    20 C    0.989   170 H    0.912
                             8 O    0.196
    20   6 C    3.959 --    19 N    0.989    23 C    0.958   171 H    0.953
                            21 C    0.947
    21   6 C    3.947 --    22 O    1.608    28 N    1.308    20 C    0.947
    22   8 O    1.945 --    21 C    1.608    28 N    0.192
    23   6 C    3.982 --    24 C    0.999   173 H    0.973   172 H    0.972
                            20 C    0.958
    24   6 C    3.850 --    23 C    0.999   174 H    0.969   175 H    0.939
                            25 C    0.878
    25   6 C    3.905 --    26 O    1.506    27 O    1.498    24 C    0.878
    26   8 O    1.769 --    25 C    1.506    27 O    0.221
    27   8 O    1.761 --    25 C    1.498    26 O    0.221
    28   7 N    3.476 --    21 C    1.308    29 C    0.979   176 H    0.926
                            22 O    0.192
    29   6 C    3.957 --    28 N    0.979    32 C    0.961    30 C    0.946
                           177 H    0.945
    30   6 C    3.955 --    31 O    1.634    36 N    1.308    29 C    0.946
    31   8 O    1.952 --    30 C    1.634    36 N    0.203
    32   6 C    3.982 --    33 C    1.001   178 H    0.969    29 C    0.961
                           179 H    0.956
    33   6 C    3.972 --    32 C    1.001    34 S    0.995   181 H    0.969
                           180 H    0.955
    34  16 S    2.084 --    35 C    1.014    33 C    0.995
    35   6 C    3.970 --    34 S    1.014   183 H    0.979   182 H    0.977
                           184 H    0.962
    36   7 N    3.473 --    30 C    1.308    37 C    0.979   185 H    0.895
                            31 O    0.203
    37   6 C    3.968 --    38 C    0.994    36 N    0.979   186 H    0.946
                            40 C    0.944
    38   6 C    3.901 --    39 O    1.882    37 C    0.994   187 H    0.947
    39   8 O    2.074 --    38 C    1.882
    40   6 C    3.983 --    41 C    0.986   189 H    0.971   188 H    0.970
                            37 C    0.944
    41   6 C    3.994 --    42 C    1.013    43 C    1.006    40 C    0.986
                           190 H    0.960
    42   6 C    3.997 --    41 C    1.013   192 H    0.984   193 H    0.984
                           191 H    0.981
    43   6 C    3.994 --    41 C    1.006   196 H    0.986   195 H    0.985
                           194 H    0.984
    44   7 N    2.989 --    45 C    1.017   198 H    0.959   197 H    0.950
    45   6 C    3.979 --    44 N    1.017    46 C    0.992   199 H    0.949
                            48 C    0.932
    46   6 C    3.901 --    47 O    1.895    45 C    0.992   200 H    0.949
    47   8 O    2.044 --    46 C    1.895
    48   6 C    3.984 --    50 C    1.005    49 C    0.997   201 H    0.966
                            45 C    0.932
    49   6 C    3.997 --    51 C    1.012    48 C    0.997   202 H    0.979
                           203 H    0.978
    50   6 C    3.995 --    48 C    1.005   205 H    0.984   204 H    0.979
                           206 H    0.976
    51   6 C    3.995 --    49 C    1.012   208 H    0.988   207 H    0.987
                           209 H    0.984
    52   7 N    3.037 --    53 C    1.036   210 H    0.947   211 H    0.909
    53   6 C    3.945 --    52 N    1.036   212 H    0.963    54 C    0.932
                            56 C    0.909
    54   6 C    3.947 --    55 O    1.610    66 N    1.331    53 C    0.932
    55   8 O    1.956 --    54 C    1.610    66 N    0.198
    56   6 C    3.967 --    57 C    1.046   214 H    0.964   213 H    0.961
                            53 C    0.909
    57   6 C    3.733 --    58 C    1.357    59 C    1.176    56 C    1.046
    58   6 C    3.955 --    60 N    1.447    57 C    1.357   215 H    0.970
    59   6 C    3.967 --    62 C    1.373    61 C    1.232    57 C    1.176
    60   7 N    2.767 --    58 C    1.447    61 C    1.194
    61   6 C    3.958 --    63 C    1.361    59 C    1.232    60 N    1.194
    62   6 C    3.888 --    64 C    1.387    59 C    1.373   216 H    0.971
    63   6 C    3.891 --    65 C    1.405    61 C    1.361   217 H    0.965
    64   6 C    3.942 --    65 C    1.437    62 C    1.387   218 H    0.974
    65   6 C    3.928 --    64 C    1.437    63 C    1.405   219 H    0.971
    66   7 N    3.493 --    54 C    1.331    67 C    0.968   220 H    0.893
                            55 O    0.198
    67   6 C    3.958 --    66 N    0.968    70 C    0.959   221 H    0.953
                            68 C    0.947
    68   6 C    3.948 --    69 O    1.584    73 N    1.336    67 C    0.947
    69   8 O    1.948 --    68 C    1.584    73 N    0.195
    70   6 C    3.989 --    72 C    1.010    71 C    0.999   222 H    0.969
                            67 C    0.959
    71   6 C    3.993 --    70 C    0.999   224 H    0.984   225 H    0.983
                           223 H    0.979
    72   6 C    3.993 --    70 C    1.010   227 H    0.984   228 H    0.983
                           226 H    0.981
    73   7 N    3.492 --    68 C    1.336    74 C    0.980   229 H    0.896
                            69 O    0.195
    74   6 C    3.958 --    73 N    0.980    77 C    0.958    75 C    0.948
                           230 H    0.938
    75   6 C    3.953 --    76 O    1.625    83 N    1.313    74 C    0.948
    76   8 O    1.945 --    75 C    1.625    83 N    0.197
    77   6 C    3.982 --    78 C    1.014    74 C    0.958   232 H    0.954
                           231 H    0.952
    78   6 C    3.899 --    80 C    1.577    79 N    1.181    77 C    1.014
    79   7 N    3.034 --    81 C    1.616    78 C    1.181
    80   6 C    3.896 --    78 C    1.577    82 N    1.163   233 H    0.964
                            81 C    0.112
    81   6 C    3.134 --    79 N    1.616    82 N    1.322    80 C    0.112
    82   7 N    3.563 --    81 C    1.322    80 C    1.163   312 H    0.931
    83   7 N    3.467 --    75 C    1.313    84 C    0.964   234 H    0.909
                            76 O    0.197
    84   6 C    3.964 --    87 C    0.970    83 N    0.964   235 H    0.955
                            85 C    0.946
    85   6 C    3.948 --    86 O    1.651    92 N    1.284    84 C    0.946
    86   8 O    1.979 --    85 C    1.651    92 N    0.193
    87   6 C    3.987 --    88 C    1.003   236 H    0.975   237 H    0.970
                            84 C    0.970
    88   6 C    3.993 --    89 C    1.004    87 C    1.003   239 H    0.977
                           238 H    0.972
    89   6 C    3.985 --    90 C    1.010    88 C    1.004   241 H    0.967
                           240 H    0.964
    90   6 C    3.907 --    89 C    1.010   243 H    0.968   242 H    0.967
                            91 N    0.942
    91   7 N    3.655 --    90 C    0.942   309 H    0.904   311 H    0.899
                           310 H    0.875
    92   7 N    3.461 --    85 C    1.284    93 C    0.984   244 H    0.914
                            86 O    0.193
    93   6 C    3.968 --    92 N    0.984    94 C    0.979   245 H    0.939
                            96 C    0.930
    94   6 C    3.895 --    95 O    1.882    93 C    0.979   246 H    0.948
    95   8 O    2.058 --    94 C    1.882
    96   6 C    3.951 --    98 C    0.997    97 O    0.992   247 H    0.962
                            93 C    0.930
    97   8 O    1.948 --    96 C    0.992   248 H    0.867
    98   6 C    3.987 --    96 C    0.997   249 H    0.981   251 H    0.978
                           250 H    0.976
    99   7 N    2.990 --   100 C    1.024   252 H    0.954   253 H    0.950
   100   6 C    3.966 --    99 N    1.024   254 H    0.957   101 C    0.946
                           103 C    0.937
   101   6 C    3.945 --   102 O    1.610   111 N    1.326   100 C    0.946
   102   8 O    1.917 --   101 C    1.610   111 N    0.197
   103   6 C    3.974 --   104 C    1.017   255 H    0.976   256 H    0.957
                           100 C    0.937
   104   6 C    3.946 --   105 C    1.393   106 C    1.387   103 C    1.017
   105   6 C    3.980 --   107 C    1.464   104 C    1.393   257 H    0.960
   106   6 C    3.978 --   108 C    1.459   104 C    1.387   258 H    0.972
                           107 C    0.104
   107   6 C    3.966 --   105 C    1.464   109 C    1.332   259 H    0.969
                           106 C    0.104
   108   6 C    3.970 --   106 C    1.459   109 C    1.356   260 H    0.968
   109   6 C    3.912 --   108 C    1.356   107 C    1.332   110 O    1.111
   110   8 O    2.112 --   109 C    1.111   261 H    0.819
   111   7 N    3.485 --   101 C    1.326   112 C    0.971   262 H    0.911
                           102 O    0.197
   112   6 C    3.960 --   111 N    0.971   263 H    0.962   115 C    0.953
                           113 C    0.939
   113   6 C    3.950 --   114 O    1.619   118 N    1.321   112 C    0.939
   114   8 O    1.955 --   113 C    1.619   118 N    0.198
   115   6 C    3.987 --   117 C    1.004   116 C    1.003   264 H    0.973
                           112 C    0.953
   116   6 C    3.993 --   115 C    1.003   265 H    0.988   266 H    0.984
                           267 H    0.981
   117   6 C    3.993 --   115 C    1.004   268 H    0.988   270 H    0.986
                           269 H    0.985
   118   7 N    3.481 --   113 C    1.321   119 C    0.960   271 H    0.925
                           114 O    0.198
   119   6 C    3.958 --   122 C    0.990   118 N    0.960   272 H    0.947
                           120 C    0.946
   120   6 C    3.953 --   121 O    1.619   123 N    1.326   119 C    0.946
   121   8 O    1.934 --   120 C    1.619   123 N    0.201
   122   6 C    3.988 --   119 C    0.990   273 H    0.985   275 H    0.978
                           274 H    0.976
   123   7 N    3.478 --   120 C    1.326   124 C    0.976   276 H    0.882
                           121 O    0.201
   124   6 C    3.973 --   125 C    1.021   123 N    0.976   127 C    0.929
                           277 H    0.926
   125   6 C    3.905 --   126 O    1.852   124 C    1.021   278 H    0.949
   126   8 O    2.049 --   125 C    1.852
   127   6 C    3.985 --   128 C    1.018   280 H    0.965   279 H    0.962
                           124 C    0.929
   128   6 C    3.990 --   130 C    1.433   129 C    1.390   127 C    1.018
                           133 C    0.108
   129   6 C    3.994 --   131 C    1.468   128 C    1.390   281 H    0.970
                           132 C    0.110
   130   6 C    3.993 --   128 C    1.433   132 C    1.420   282 H    0.971
                           131 C    0.113
   131   6 C    3.993 --   129 C    1.468   133 C    1.412   283 H    0.970
                           130 C    0.113
   132   6 C    3.993 --   133 C    1.463   130 C    1.420   284 H    0.973
                           129 C    0.110
   133   6 C    3.994 --   132 C    1.463   131 C    1.412   285 H    0.973
                           128 C    0.108
   134   1 H    1.000 --   286 H    0.998
   135   1 H    1.000 --   287 H    0.980
   136   1 H    1.000 --   288 H    0.983
   137   1 H    1.000 --   289 H    0.974
   138   1 H    0.999 --   290 H    0.919
   139   1 H    0.999 --   291 H    0.918
   140   1 H    1.000 --   292 H    0.973
   141   1 H    1.000 --   293 H    0.958
   142   1 H    1.000 --   294 H    0.948
   143   1 H    1.000 --   295 H    0.987
   144   1 H    1.000 --   296 H    0.998
   145   1 H    1.000 --   297 H    0.972
   146   1 H    1.000 --   298 H    0.985
   147   1 H    1.000 --   299 H    0.974
   148   1 H    1.000 --   300 H    0.977
   149   1 H    1.000 --   301 H    0.992
   150   1 H    1.000 --   302 H    0.978
   151   1 H    1.000 --   303 H    0.967
   152   1 H    1.000 --   304 H    0.960
   153   1 H    1.000 --   305 H    0.973
   154   1 H    1.000 --   306 H    0.929
   155   1 H    1.000 --   307 H    0.954
   156   1 H    0.999 --   308 H    0.880
   157   1 H    0.966 --     1 N    0.954
   158   1 H    0.973 --     1 N    0.959
   159   1 H    0.989 --     2 C    0.956
   160   1 H    0.993 --     2 C    0.972
   161   1 H    0.958 --     5 N    0.927
   162   1 H    0.994 --     6 C    0.951
   163   1 H    0.976 --     9 C    0.944
   164   1 H    0.994 --     9 C    0.971
   165   1 H    0.997 --    11 C    0.971
   166   1 H    0.996 --    15 C    0.967
   167   1 H    0.994 --    16 C    0.967
   168   1 H    0.997 --    17 C    0.973
   169   1 H    0.996 --    18 C    0.968
   170   1 H    0.949 --    19 N    0.912
   171   1 H    0.993 --    20 C    0.953
   172   1 H    0.996 --    23 C    0.972
   173   1 H    0.993 --    23 C    0.973
   174   1 H    0.992 --    24 C    0.969
   175   1 H    0.990 --    24 C    0.939
   176   1 H    0.957 --    28 N    0.926
   177   1 H    0.990 --    29 C    0.945
   178   1 H    0.995 --    32 C    0.969
   179   1 H    0.994 --    32 C    0.956
   180   1 H    0.994 --    33 C    0.955
   181   1 H    0.988 --    33 C    0.969
   182   1 H    0.994 --    35 C    0.977
   183   1 H    0.990 --    35 C    0.979
   184   1 H    0.991 --    35 C    0.962
   185   1 H    0.945 --    36 N    0.895
   186   1 H    0.991 --    37 C    0.946
   187   1 H    0.994 --    38 C    0.947
   188   1 H    0.995 --    40 C    0.970
   189   1 H    0.996 --    40 C    0.971
   190   1 H    0.998 --    41 C    0.960
   191   1 H    0.998 --    42 C    0.981
   192   1 H    0.999 --    42 C    0.984
   193   1 H    0.998 --    42 C    0.984
   194   1 H    0.998 --    43 C    0.984
   195   1 H    0.997 --    43 C    0.985
   196   1 H    0.998 --    43 C    0.986
   197   1 H    0.970 --    44 N    0.950
   198   1 H    0.974 --    44 N    0.959
   199   1 H    0.993 --    45 C    0.949
   200   1 H    0.996 --    46 C    0.949
   201   1 H    0.998 --    48 C    0.966
   202   1 H    0.999 --    49 C    0.979
   203   1 H    0.998 --    49 C    0.978
   204   1 H    0.998 --    50 C    0.979
   205   1 H    0.998 --    50 C    0.984
   206   1 H    0.997 --    50 C    0.976
   207   1 H    0.998 --    51 C    0.987
   208   1 H    0.998 --    51 C    0.988
   209   1 H    0.999 --    51 C    0.984
   210   1 H    0.964 --    52 N    0.947
   211   1 H    0.954 --    52 N    0.909
   212   1 H    0.995 --    53 C    0.963
   213   1 H    0.990 --    56 C    0.961
   214   1 H    0.991 --    56 C    0.964
   215   1 H    0.997 --    58 C    0.970
   216   1 H    0.996 --    62 C    0.971
   217   1 H    0.993 --    63 C    0.965
   218   1 H    0.996 --    64 C    0.974
   219   1 H    0.996 --    65 C    0.971
   220   1 H    0.946 --    66 N    0.893
   221   1 H    0.993 --    67 C    0.953
   222   1 H    0.998 --    70 C    0.969
   223   1 H    0.998 --    71 C    0.979
   224   1 H    0.998 --    71 C    0.984
   225   1 H    0.997 --    71 C    0.983
   226   1 H    0.998 --    72 C    0.981
   227   1 H    0.997 --    72 C    0.984
   228   1 H    0.997 --    72 C    0.983
   229   1 H    0.946 --    73 N    0.896
   230   1 H    0.989 --    74 C    0.938
   231   1 H    0.992 --    77 C    0.952
   232   1 H    0.990 --    77 C    0.954
   233   1 H    0.996 --    80 C    0.964
   234   1 H    0.950 --    83 N    0.909
   235   1 H    0.994 --    84 C    0.955
   236   1 H    0.996 --    87 C    0.975
   237   1 H    0.995 --    87 C    0.970
   238   1 H    0.996 --    88 C    0.972
   239   1 H    0.996 --    88 C    0.977
   240   1 H    0.991 --    89 C    0.964
   241   1 H    0.996 --    89 C    0.967
   242   1 H    0.987 --    90 C    0.967
   243   1 H    0.986 --    90 C    0.968
   244   1 H    0.955 --    92 N    0.914
   245   1 H    0.990 --    93 C    0.939
   246   1 H    0.992 --    94 C    0.948
   247   1 H    0.994 --    96 C    0.962
   248   1 H    0.894 --    97 O    0.867
   249   1 H    0.996 --    98 C    0.981
   250   1 H    0.996 --    98 C    0.976
   251   1 H    0.993 --    98 C    0.978
   252   1 H    0.967 --    99 N    0.954
   253   1 H    0.967 --    99 N    0.950
   254   1 H    0.996 --   100 C    0.957
   255   1 H    0.997 --   103 C    0.976
   256   1 H    0.990 --   103 C    0.957
   257   1 H    0.997 --   105 C    0.960
   258   1 H    0.997 --   106 C    0.972
   259   1 H    0.997 --   107 C    0.969
   260   1 H    0.996 --   108 C    0.968
   261   1 H    0.885 --   110 O    0.819
   262   1 H    0.951 --   111 N    0.911
   263   1 H    0.994 --   112 C    0.962
   264   1 H    0.997 --   115 C    0.973
   265   1 H    0.998 --   116 C    0.988
   266   1 H    0.999 --   116 C    0.984
   267   1 H    0.996 --   116 C    0.981
   268   1 H    0.998 --   117 C    0.988
   269   1 H    0.997 --   117 C    0.985
   270   1 H    0.998 --   117 C    0.986
   271   1 H    0.956 --   118 N    0.925
   272   1 H    0.991 --   119 C    0.947
   273   1 H    0.997 --   122 C    0.985
   274   1 H    0.994 --   122 C    0.976
   275   1 H    0.997 --   122 C    0.978
   276   1 H    0.943 --   123 N    0.882
   277   1 H    0.988 --   124 C    0.926
   278   1 H    0.992 --   125 C    0.949
   279   1 H    0.993 --   127 C    0.962
   280   1 H    0.994 --   127 C    0.965
   281   1 H    0.998 --   129 C    0.970
   282   1 H    0.998 --   130 C    0.971
   283   1 H    0.998 --   131 C    0.970
   284   1 H    0.998 --   132 C    0.973
   285   1 H    0.998 --   133 C    0.973
   286   1 H    1.000 --   134 H    0.998
   287   1 H    1.000 --   135 H    0.980
   288   1 H    1.000 --   136 H    0.983
   289   1 H    1.000 --   137 H    0.974
   290   1 H    0.999 --   138 H    0.919
   291   1 H    0.999 --   139 H    0.918
   292   1 H    1.000 --   140 H    0.973
   293   1 H    0.999 --   141 H    0.958
   294   1 H    0.999 --   142 H    0.948
   295   1 H    1.000 --   143 H    0.987
   296   1 H    1.000 --   144 H    0.998
   297   1 H    1.000 --   145 H    0.972
   298   1 H    1.000 --   146 H    0.985
   299   1 H    1.000 --   147 H    0.974
   300   1 H    1.000 --   148 H    0.977
   301   1 H    1.000 --   149 H    0.992
   302   1 H    1.000 --   150 H    0.978
   303   1 H    1.000 --   151 H    0.967
   304   1 H    1.000 --   152 H    0.960
   305   1 H    1.000 --   153 H    0.973
   306   1 H    1.000 --   154 H    0.929
   307   1 H    1.000 --   155 H    0.954
   308   1 H    1.000 --   156 H    0.880
   309   1 H    0.921 --    91 N    0.904
   310   1 H    0.907 --    91 N    0.875
   311   1 H    0.911 --    91 N    0.899
   312   1 H    0.964 --    82 N    0.931
 ---------------------------------------------------------------------------

Topologies differ in total number of bonds
Writing topology from bond orders to xtbtopo.mol

molecular dipole:
                 x           y           z       tot (Debye)
 q only:      136.144      -2.816      37.502
   full:      135.378      -2.838      36.168     356.238
molecular quadrupole (traceless):
                xx          xy          yy          xz          yz          zz
 q only:    17840.950    -516.372  -10133.566    7762.592     -76.727   -7707.383
  q+dip:    17707.502    -539.914  -10004.667    7455.578     -60.832   -7702.835
   full:    17699.013    -533.734  -10003.740    7452.828     -64.482   -7695.272


           -------------------------------------------------
          | TOTAL ENERGY             -427.154713518903 Eh   |
          | GRADIENT NORM               1.407106842795 Eh/α |
          | HOMO-LUMO GAP               0.005745094735 eV   |
           -------------------------------------------------
########################################################################
[WARNING] Runtime exception occurred
-3- restart_readRestart: Dimension missmatch in restart file.
-2- restart_readRestart: Multiplicity missmatch in restart file.
-1- restart_readRestart: Number of electron missmatch in restart file.
########################################################################

------------------------------------------------------------------------
 * finished run on 2025/05/05 at 17:01:05.789     
------------------------------------------------------------------------
 total:
 * wall-time:     0 d,  0 h,  0 min,  2.978 sec
 *  cpu-time:     0 d,  0 h,  1 min, 28.795 sec
 * ratio c/w:    29.813 speedup
 SCF:
 * wall-time:     0 d,  0 h,  0 min,  2.938 sec
 *  cpu-time:     0 d,  0 h,  1 min, 27.696 sec
 * ratio c/w:    29.846 speedup

