      -----------------------------------------------------------      
     |                   =====================                   |     
     |                           x T B                           |     
     |                   =====================                   |     
     |                         S. Grimme                         |     
     |          Mulliken Center for Theoretical Chemistry        |     
     |                    University of Bonn                     |     
      -----------------------------------------------------------      

   * xtb version 6.7.1 (edcfbbe) compiled by 'conda@afd1a870197c' on 2025-04-11

   xtb is free software: you can redistribute it and/or modify it under
   the terms of the GNU Lesser General Public License as published by
   the Free Software Foundation, either version 3 of the License, or
   (at your option) any later version.
   
   xtb is distributed in the hope that it will be useful,
   but WITHOUT ANY WARRANTY; without even the implied warranty of
   MERCHANTABILITY or FITNESS FOR A PARTICULAR PURPOSE.  See the
   GNU Lesser General Public License for more details.
   
   Cite this work as:
   * C. Bannwarth, E. Caldeweyher, S. Ehlert, A. Hansen, P. Pracht,
     J. Seibert, S. Spicher, S. Grimme, WIREs Comput. Mol. Sci., 2020, 11,
     e01493. DOI: 10.1002/wcms.1493
   
   for GFN2-xTB:
   * C. Bannwarth, S. Ehlert and S. Grimme., J. Chem. Theory Comput., 2019,
     15, 1652-1671. DOI: 10.1021/acs.jctc.8b01176
   for GFN1-xTB:
   * S. Grimme, C. Bannwarth, P. Shushkov, J. Chem. Theory Comput., 2017,
     13, 1989-2009. DOI: 10.1021/acs.jctc.7b00118
   for GFN0-xTB:
   * P. Pracht, E. Caldeweyher, S. Ehlert, S. Grimme, ChemRxiv, 2019, preprint.
     DOI: 10.26434/chemrxiv.8326202.v1
   for GFN-FF:
   * S. Spicher and S. Grimme, Angew. Chem. Int. Ed., 2020, 59, 15665-15673.
     DOI: 10.1002/anie.202004239
   
   for ALPB and GBSA implicit solvation:
   * S. Ehlert, M. Stahn, S. Spicher, S. Grimme, J. Chem. Theory Comput.,
     2021, 17, 4250-4261. DOI: 10.1021/acs.jctc.1c00471
   
   for ddCOSMO and CPCM-X implicit solvation:
   * M. Stahn, S. Ehlert, S. Grimme, J. Phys. Chem. A,
     2023, XX, XXXX-XXXX. DOI: 10.1021/acs.jpca.3c04382
   
   for DFT-D4:
   * E. Caldeweyher, C. Bannwarth and S. Grimme, J. Chem. Phys., 2017,
     147, 034112. DOI: 10.1063/1.4993215
   * E. Caldeweyher, S. Ehlert, A. Hansen, H. Neugebauer, S. Spicher,
     C. Bannwarth and S. Grimme, J. Chem. Phys., 2019, 150, 154122.
     DOI: 10.1063/1.5090222
   * E. Caldeweyher, J.-M. Mewes, S. Ehlert and S. Grimme, Phys. Chem. Chem. Phys.
     2020, 22, 8499-8512. DOI: 10.1039/D0CP00502A
   
   for sTDA-xTB:
   * S. Grimme and C. Bannwarth, J. Chem. Phys., 2016, 145, 054103.
     DOI: 10.1063/1.4959605
   
   in the mass-spec context:
   * V. Asgeirsson, C. Bauer and S. Grimme, Chem. Sci., 2017, 8, 4879.
     DOI: 10.1039/c7sc00601b
   * J. Koopman and S. Grimme, ACS Omega 2019, 4, 12, 15120-15133.
     DOI: 10.1021/acsomega.9b02011
   
   for metadynamics refer to:
   * S. Grimme, J. Chem. Theory Comput., 2019, 155, 2847-2862
     DOI: 10.1021/acs.jctc.9b00143
   
   for SPH calculations refer to:
   * S. Spicher and S. Grimme, J. Chem. Theory Comput., 2021, 17, 1701-1714
     DOI: 10.1021/acs.jctc.0c01306
   
   for ONIOM refer to:
   * C. Plett, A. Katbashev, S. Ehlert, S. Grimme, M. Bursch,
     Phys. Chem. Chem. Phys., 2023, 25, 17860-17868. DOI: 10.1039/D3CP02178E
   
   for DIPRO refer to:
   * J. Kohn, N. Gildemeister, S. Grimme, D. Fazzi, A. Hansen,
     J. Chem. Phys., 2023, just accepted.
   
   for PTB refer to:
   * S. Grimme, M. Mueller, A. Hansen, J. Chem. Phys., 2023, 158, 124111.
     DOI: 10.1063/5.0137838
   
   with help from (in alphabetical order)
   P. Atkinson, C. Bannwarth, F. Bohle, G. Brandenburg, E. Caldeweyher
   M. Checinski, S. Dohm, S. Ehlert, S. Ehrlich, I. Gerasimov, C. Hölzer
   A. Katbashev, J. Kohn, J. Koopman, C. Lavigne, S. Lehtola, F. März, M. Müller,
   F. Musil, H. Neugebauer, J. Pisarek, C. Plett, P. Pracht, F. Pultar,
   J. Seibert, P. Shushkov, S. Spicher, M. Stahn, M. Steiner, T. Strunk,
   J. Stückrath, T. Rose, and J. Unsleber
   
 * started run on 2025/05/05 at 16:52:42.922     
   ID    Z sym.   atoms
    1    7 N      1, 6, 10, 18, 24, 31, 38, 49, 57, 63, 66, 67, 74, 75, 81,
                  84, 85, 93, 94, 101, 103-105
    2    6 C      2, 3, 5, 7, 8, 11, 12, 14-17, 19-23, 25, 26, 28-30, 32, 33,
                  35-37, 39, 40, 42-48, 50, 51, 53-56, 58, 59, 61, 62, 64,
                  65, 68, 69, 71, 72, 76, 77, 79, 80, 82, 83, 86, 87, 89-92,
                  95, 96, 98-100, 102, 106, 107, 109
    3    8 O      4, 9, 13, 27, 34, 41, 52, 60, 70, 73, 78, 88, 97, 108, 110
    4    1 H      111-254

           -------------------------------------------------
          |                Calculation Setup                |
           -------------------------------------------------

          program call               : xtb /tmp/tmpmr851cc2/HIE/input.xyz --alpb ether --chrg 5 --input /tmp/tmpmr851cc2/HIE/constraints.inp --gfn 2
          hostname                   : fedora
          coordinate file            : /tmp/tmpmr851cc2/HIE/input.xyz
          omp threads                :                    32


molecular fragmentation (1/2 indicates fragments):
111111111222222222222222222222222222222222222222222222222222222222222222
222222222222222222222222222222222222222222222222222222211111111112222222
222222222222222222222222222222222222222222222222222222222222222222222222
22222222222222222222222222222222222222
# atoms in fragment 1/2:    19   235
 fragment masses (1/2) :      130.15     1441.92
CMA distance (Bohr)    :  12.334
constraining FC (au)   :  0.0500
########################################################################
[WARNING] Please study the warnings concerning your input carefully
-1- readin_getIntValue: could not parse 'S'
########################################################################

           -------------------------------------------------
          |                 G F N 2 - x T B                 |
           -------------------------------------------------

        Reference                      10.1021/acs.jctc.8b01176
      * Hamiltonian:
        H0-scaling (s, p, d)           1.850000    2.230000    2.230000
        zeta-weighting                 0.500000
      * Dispersion:
        s8                             2.700000
        a1                             0.520000
        a2                             5.000000
        s9                             5.000000
      * Repulsion:
        kExp                           1.500000    1.000000
        rExp                           1.000000
      * Coulomb:
        alpha                          2.000000
        third order                    shell-resolved
        anisotropic                    true
        a3                             3.000000
        a5                             4.000000
        cn-shift                       1.200000
        cn-exp                         4.000000
        max-rad                        5.000000

      * Solvation model:               ALPB
        Solvent                        ether
        Parameter file                 internal GFN2-xTB/ALPB
        Dielectric constant                4.3300E+00
        Reference state                gsolv [1 M gas/solution]
        Free energy shift                  4.9534E-03 Eh       3.1083E+00 kcal/mol
        Temperature                        2.9815E+02 K
        Density                            7.1300E-01 kg/L
        Solvent mass                       7.4120E+01 g/mol
        Interaction kernel             P16
        Born radius scaling (c1)           1.5847E+00
        Born radii integrator          GBOBC
        Born offset                        0.0000E+00 a0       0.0000E+00 AA
        H-bond correction              true
        Ion screening                  false
        Surface tension                    1.0000E-05 Eh       1.5569E+01 dyn/cm
        Grid points                               230 per atom

          ...................................................
          :                      SETUP                      :
          :.................................................:
          :  # basis functions                 584          :
          :  # atomic orbitals                 584          :
          :  # shells                          364          :
          :  # electrons                       632          :
          :  max. iterations                   250          :
          :  Hamiltonian                  GFN2-xTB          :
          :  restarted?                      false          :
          :  GBSA solvation                   true          :
          :  PC potential                    false          :
          :  electronic temp.          300.0000000     K    :
          :  accuracy                    1.0000000          :
          :  -> integral cutoff          0.2500000E+02      :
          :  -> integral neglect         0.1000000E-07      :
          :  -> SCF convergence          0.1000000E-05 Eh   :
          :  -> wf. convergence          0.1000000E-03 e    :
          :  Broyden damping             0.4000000          :
          :  net charge                          5          :
          :  unpaired electrons                  0          :
          ...................................................

 iter      E             dE          RMSdq      gap      omega  full diag
   1   -354.8875946 -0.354888E+03  0.446E+00    0.04       0.0  T
   2   -348.7124054  0.617519E+01  0.448E+00    0.15       1.0  T
   3   -354.2913305 -0.557893E+01  0.324E+00    0.01       1.0  T
   4   -356.3947553 -0.210342E+01  0.254E+00    0.34       1.0  T
   5   -356.2430010  0.151754E+00  0.205E+00    0.07       1.0  T
   6   -357.0461397 -0.803139E+00  0.179E+00    0.02       1.0  T
   7   -356.0573974  0.988742E+00  0.234E+00    0.29       1.0  T
   8   -357.2262511 -0.116885E+01  0.137E+00    0.04       1.0  T
   9   -357.6700781 -0.443827E+00  0.119E+00    0.01       1.0  T
  10   -357.6279888  0.420893E-01  0.107E+00    0.05       1.0  T
  11   -356.8380206  0.789968E+00  0.155E+00    0.04       1.0  T
  12   -357.8275454 -0.989525E+00  0.103E+00    0.18       1.0  T
  13   -357.8611501 -0.336047E-01  0.859E-01    0.03       1.0  T
  14   -357.8538552  0.729494E-02  0.953E-01    0.12       1.0  T
  15   -357.8738927 -0.200375E-01  0.809E-01    0.04       1.0  T
  16   -357.9048863 -0.309936E-01  0.858E-01    0.07       1.0  T
  17   -357.9523368 -0.474505E-01  0.711E-01    0.05       1.0  T
  18   -357.9834447 -0.311079E-01  0.719E-01    0.03       1.0  T
  19   -358.0310598 -0.476151E-01  0.582E-01    0.01       1.0  T
  20   -358.0169497  0.141101E-01  0.658E-01    0.02       1.0  T
  21   -358.0152107  0.173902E-02  0.647E-01    0.02       1.0  T
  22   -358.0420844 -0.268736E-01  0.601E-01    0.04       1.0  T
  23   -358.0213309  0.207535E-01  0.635E-01    0.03       1.0  T
  24   -358.0372832 -0.159523E-01  0.600E-01    0.06       1.0  T
  25   -358.0544025 -0.171193E-01  0.520E-01    0.06       1.0  T
  26   -358.0555193 -0.111679E-02  0.521E-01    0.05       1.0  T
  27   -358.0522371  0.328219E-02  0.453E-01    0.05       1.0  T
  28   -358.0337596  0.184775E-01  0.461E-01    0.06       1.0  T
  29   -358.0464658 -0.127062E-01  0.456E-01    0.06       1.0  T
  30   -358.0576043 -0.111385E-01  0.453E-01    0.07       1.0  T
  31   -358.0418321  0.157722E-01  0.456E-01    0.05       1.0  T
  32   -358.0544033 -0.125713E-01  0.438E-01    0.04       1.0  T
  33   -358.0879101 -0.335068E-01  0.357E-01    0.03       1.0  T
  34   -358.0951400 -0.722989E-02  0.340E-01    0.03       1.0  T
  35   -358.1155041 -0.203641E-01  0.215E-01    0.03       1.0  T
  36   -358.1220572 -0.655307E-02  0.200E-01    0.01       1.0  T
  37   -358.1283155 -0.625837E-02  0.154E-01    0.02       1.0  T
  38   -358.1289522 -0.636646E-03  0.140E-01    0.02       1.0  T
  39   -358.1296970 -0.744833E-03  0.127E-01    0.02       1.0  T
  40   -358.1298387 -0.141666E-03  0.110E-01    0.02       1.0  T
  41   -358.1311628 -0.132410E-02  0.859E-02    0.02       1.0  T
  42   -358.1315227 -0.359894E-03  0.742E-02    0.02       1.0  T
  43   -358.1317345 -0.211851E-03  0.664E-02    0.02       1.0  T
  44   -358.1324942 -0.759693E-03  0.480E-02    0.02       1.0  T
  45   -358.1330647 -0.570517E-03  0.280E-02    0.02       1.0  T
  46   -358.1333161 -0.251316E-03  0.124E-02    0.02       1.0  T
  47   -358.1333115  0.452668E-05  0.115E-02    0.02       1.0  T
  48   -358.1333622 -0.506268E-04  0.463E-03    0.02       1.4  T
  49   -358.1333537  0.845179E-05  0.569E-03    0.02       1.1  T
  50   -358.1333650 -0.112950E-04  0.308E-03    0.02       2.0  T
  51   -358.1333666 -0.154832E-05  0.233E-03    0.02       2.7  T
  52   -358.1333663  0.272614E-06  0.218E-03    0.02       2.9  T
  53   -358.1333672 -0.930858E-06  0.161E-03    0.02       3.9  T
  54   -358.1333677 -0.451042E-06  0.117E-03    0.02       5.4  T
  55   -358.1333678 -0.154344E-06  0.849E-04    0.02       7.4  T
  56   -358.1333681 -0.305508E-06  0.232E-04    0.02      27.0  T

   *** convergence criteria satisfied after 56 iterations ***

         #    Occupation            Energy/Eh            Energy/eV
      -------------------------------------------------------------
         1        2.0000           -0.8210003             -22.3406
       ...           ...                  ...                  ...
       310        1.9821           -0.4630732             -12.6009
       311        1.9070           -0.4614714             -12.5573
       312        1.8493           -0.4609841             -12.5440
       313        1.8172           -0.4607835             -12.5386
       314        1.7795           -0.4605857             -12.5332
       315        1.7227           -0.4603373             -12.5264
       316        1.3431           -0.4592814             -12.4977 (HOMO)
       317        1.0605           -0.4587169             -12.4823 (LUMO)
       318        0.4724           -0.4574870             -12.4489
       319        0.0857           -0.4556512             -12.3989
       320                         -0.3900799             -10.6146
       321                         -0.3807750             -10.3614
       ...                                ...                  ...
       584                          2.1773480              59.2487
      -------------------------------------------------------------
                  HL-Gap            0.0005645 Eh            0.0154 eV
             Fermi-level           -0.4586019 Eh          -12.4792 eV

 SCC (total)                   0 d,  0 h,  0 min,  2.102 sec
 SCC setup                      ...        0 min,  0.004 sec (  0.192%)
 Dispersion                     ...        0 min,  0.011 sec (  0.545%)
 classical contributions        ...        0 min,  0.000 sec (  0.022%)
 integral evaluation            ...        0 min,  0.021 sec (  1.019%)
 iterations                     ...        0 min,  1.987 sec ( 94.541%)
 molecular gradient             ...        0 min,  0.075 sec (  3.560%)
 printout                       ...        0 min,  0.002 sec (  0.119%)

         :::::::::::::::::::::::::::::::::::::::::::::::::::::
         ::                     SUMMARY                     ::
         :::::::::::::::::::::::::::::::::::::::::::::::::::::
         :: total energy            -351.733916133077 Eh    ::
         :: total w/o Gsasa/hb      -351.616101174132 Eh    ::
         :: gradient norm              1.347241428611 Eh/a0 ::
         :: HOMO-LUMO gap              0.015359543122 eV    ::
         ::.................................................::
         :: SCC energy              -358.112517643874 Eh    ::
         :: -> isotropic ES            1.509591355852 Eh    ::
         :: -> anisotropic ES          0.028878920203 Eh    ::
         :: -> anisotropic XC          0.232956746549 Eh    ::
         :: -> dispersion             -0.284655655085 Eh    ::
         :: -> Gsolv                  -0.814027087249 Eh    ::
         ::    -> Gelec               -0.696212128304 Eh    ::
         ::    -> Gsasa               -0.094071785324 Eh    ::
         ::    -> Ghb                 -0.028696611198 Eh    ::
         ::    -> Gshift               0.004953437577 Eh    ::
         :: repulsion energy           6.378601510798 Eh    ::
         :: add. restraining           0.000000000000 Eh    ::
         :: total charge               5.000000001247 e     ::
         :::::::::::::::::::::::::::::::::::::::::::::::::::::

           -------------------------------------------------
          |                Property Printout                |
           -------------------------------------------------

    * Orbital Energies and Occupations

         #    Occupation            Energy/Eh            Energy/eV
      -------------------------------------------------------------
         1        2.0000           -0.8210003             -22.3406
       ...           ...                  ...                  ...
       304        2.0000           -0.4706456             -12.8069
       305        2.0000           -0.4701922             -12.7946
       306        1.9998           -0.4673913             -12.7184
       307        1.9997           -0.4671248             -12.7111
       308        1.9979           -0.4650984             -12.6560
       309        1.9831           -0.4631265             -12.6023
       310        1.9821           -0.4630732             -12.6009
       311        1.9070           -0.4614714             -12.5573
       312        1.8493           -0.4609841             -12.5440
       313        1.8172           -0.4607835             -12.5386
       314        1.7795           -0.4605857             -12.5332
       315        1.7227           -0.4603373             -12.5264
       316        1.3431           -0.4592814             -12.4977 (HOMO)
       317        1.0605           -0.4587169             -12.4823 (LUMO)
       318        0.4724           -0.4574870             -12.4489
       319        0.0857           -0.4556512             -12.3989
       320                         -0.3900799             -10.6146
       321                         -0.3807750             -10.3614
       322                         -0.3679706             -10.0130
       323                         -0.3622140              -9.8563
       324                         -0.3506793              -9.5425
       325                         -0.3150607              -8.5732
       326                         -0.3075306              -8.3683
       327                         -0.3042230              -8.2783
       ...                                ...                  ...
       584                          2.1773480              59.2487
      -------------------------------------------------------------
                  HL-Gap            0.0005645 Eh            0.0154 eV
             Fermi-level           -0.4586019 Eh          -12.4792 eV

     #   Z          covCN         q      C6AA      α(0)
     1   7 N        2.631    -0.345    28.891     7.983
     2   6 C        3.792     0.034    20.007     6.370
     3   6 C        2.766     0.273    22.393     7.750
     4   8 O        0.860    -0.459    22.888     6.414
     5   6 C        3.765    -0.123    22.904     6.821
     6   7 N        2.688    -0.170    24.676     7.378
     7   6 C        3.750    -0.030    21.163     6.561
     8   6 C        2.763     0.202    23.708     7.974
     9   8 O        0.856    -0.363    20.964     6.139
    10   7 N        2.627    -0.316    28.145     7.879
    11   6 C        3.782     0.022    20.230     6.407
    12   6 C        2.761     0.256    22.694     7.801
    13   8 O        0.858    -0.444    22.575     6.370
    14   6 C        3.808    -0.088    22.173     6.703
    15   6 C        3.036    -0.033    28.795     8.802
    16   6 C        2.992     0.024    27.459     8.596
    17   6 C        4.007    -0.035    21.123     6.529
    18   7 N        1.896    -0.240    27.116     7.720
    19   6 C        3.056     0.096    25.812     8.332
    20   6 C        3.840    -0.114    22.651     6.770
    21   6 C        2.908    -0.022    28.548     8.761
    22   6 C        2.912    -0.017    28.440     8.745
    23   6 C        2.920    -0.025    28.623     8.773
    24   7 N        2.756    -0.067    22.546     7.052
    25   6 C        3.812     0.036    19.966     6.360
    26   6 C        2.914     0.097    25.843     8.336
    27   8 O        0.857    -0.302    19.827     5.970
    28   6 C        3.820    -0.077    21.954     6.668
    29   6 C        3.828    -0.082    22.037     6.680
    30   6 C        3.755    -0.017    20.934     6.524
    31   7 N        2.630    -0.333    28.563     7.937
    32   6 C        3.789     0.012    20.385     6.430
    33   6 C        2.752     0.272    22.403     7.751
    34   8 O        0.860    -0.467    23.069     6.440
    35   6 C        3.844    -0.026    21.008     6.520
    36   6 C        3.755    -0.130    23.053     6.846
    37   6 C        3.753    -0.129    23.037     6.844
    38   7 N        2.694    -0.180    24.904     7.412
    39   6 C        3.797     0.016    20.306     6.416
    40   6 C        2.762     0.282    22.229     7.721
    41   8 O        0.861    -0.464    23.009     6.431
    42   6 C        3.818    -0.089    22.180     6.703
    43   6 C        2.980     0.005    27.898     8.664
    44   6 C        2.946    -0.045    29.120     8.851
    45   6 C        2.936    -0.048    29.191     8.861
    46   6 C        2.940    -0.035    28.879     8.814
    47   6 C        2.936    -0.036    28.887     8.815
    48   6 C        2.951    -0.039    28.959     8.826
    49   7 N        2.691    -0.187    25.048     7.433
    50   6 C        3.801     0.016    20.315     6.417
    51   6 C        2.751     0.267    22.491     7.766
    52   8 O        0.858    -0.489    23.544     6.506
    53   6 C        3.856    -0.034    21.141     6.539
    54   6 C        3.805    -0.073    21.894     6.661
    55   6 C        3.760    -0.137    23.185     6.864
    56   6 C        3.760    -0.122    22.878     6.819
    57   7 N        2.682    -0.165    24.578     7.363
    58   6 C        3.792     0.018    20.273     6.412
    59   6 C        2.757     0.265    22.531     7.773
    60   8 O        0.858    -0.489    23.550     6.506
    61   6 C        3.812    -0.088    22.174     6.703
    62   6 C        3.079     0.069    26.376     8.420
    63   7 N        1.983    -0.190    25.897     7.547
    64   6 C        3.036     0.010    27.748     8.640
    65   6 C        2.081     0.203    26.160     8.263
    66   7 N        1.984    -0.172    25.491     7.488
    67   7 N        2.690    -0.126    23.746     7.237
    68   6 C        3.804     0.026    20.134     6.388
    69   6 C        2.755     0.276    22.327     7.738
    70   8 O        0.860    -0.446    22.623     6.377
    71   6 C        3.812    -0.107    22.530     6.756
    72   6 C        2.739     0.292    22.045     7.687
    73   8 O        0.860    -0.459    22.893     6.415
    74   7 N        2.641    -0.248    26.455     7.639
    75   7 N        2.684    -0.151    24.262     7.315
    76   6 C        3.802     0.009    20.420     6.434
    77   6 C        2.787     0.274    22.375     7.748
    78   8 O        0.861    -0.479    23.328     6.476
    79   6 C        3.838    -0.086    22.111     6.690
    80   6 C        3.096     0.076    26.187     8.387
    81   7 N        1.978    -0.191    25.930     7.552
    82   6 C        3.048    -0.033    28.775     8.798
    83   6 C        2.110     0.113    28.072     8.561
    84   7 N        2.835    -0.033    21.876     6.947
    85   7 N        2.690    -0.152    24.293     7.320
    86   6 C        3.818     0.017    20.275     6.408
    87   6 C        2.760     0.269    22.465     7.762
    88   8 O        0.857    -0.489    23.550     6.506
    89   6 C        3.817    -0.081    22.028     6.680
    90   6 C        3.809    -0.098    22.362     6.731
    91   6 C        3.804    -0.105    22.499     6.753
    92   6 C        3.733    -0.053    21.626     6.637
    93   7 N        3.485    -0.178    24.844     7.403
    94   7 N        2.699    -0.147    24.182     7.304
    95   6 C        3.796     0.026    20.140     6.390
    96   6 C        2.771     0.188    23.975     8.019
    97   8 O        0.856    -0.351    20.731     6.104
    98   6 C        3.818    -0.092    22.235     6.711
    99   6 C        3.806    -0.087    22.149     6.700
   100   6 C        3.746    -0.033    21.230     6.572
   101   7 N        2.699    -0.136    23.956     7.269
   102   6 C        2.734     0.231    23.152     7.878
   103   7 N        2.647    -0.261    26.773     7.685
   104   7 N        2.658    -0.260    26.749     7.681
   105   7 N        2.628    -0.313    28.070     7.869
   106   6 C        3.780     0.023    20.207     6.404
   107   6 C        2.919     0.110    25.582     8.294
   108   8 O        0.856    -0.258    19.037     5.850
   109   6 C        3.680     0.064    19.710     6.359
   110   8 O        1.654    -0.459    22.037     6.337
   111   1 H        0.980    -0.074     4.706     3.390
   112   1 H        0.980    -0.023     3.482     2.916
   113   1 H        0.980     0.007     2.925     2.672
   114   1 H        0.980     0.023     2.682     2.559
   115   1 H        0.980    -0.017     3.363     2.866
   116   1 H        0.980    -0.020     3.417     2.888
   117   1 H        0.980     0.028     2.608     2.524
   118   1 H        0.980    -0.023     3.476     2.913
   119   1 H        0.980    -0.015     3.316     2.845
   120   1 H        0.980    -0.018     3.388     2.876
   121   1 H        0.980    -0.015     3.324     2.849
   122   1 H        0.980     0.004     2.979     2.697
   123   1 H        0.980    -0.003     3.093     2.748
   124   1 H        0.980     0.011     2.860     2.642
   125   1 H        0.980     0.004     2.977     2.696
   126   1 H        0.980     0.009     2.894     2.658
   127   1 H        0.980     0.002     3.015     2.713
   128   1 H        0.860     0.171     1.267     1.764
   129   1 H        0.860     0.185     1.188     1.708
   130   1 H        0.927     0.061     2.189     2.314
   131   1 H        0.927     0.066     2.128     2.281
   132   1 H        0.926     0.065     2.143     2.289
   133   1 H        0.927     0.064     2.156     2.296
   134   1 H        0.861     0.234     0.950     1.526
   135   1 H        0.927     0.123     1.589     1.971
   136   1 H        0.926     0.133     1.513     1.923
   137   1 H        0.929     0.083     1.945     2.181
   138   1 H        0.860     0.184     1.190     1.709
   139   1 H        0.860     0.171     1.264     1.761
   140   1 H        0.926     0.081     1.973     2.196
   141   1 H        0.927     0.071     2.078     2.254
   142   1 H        0.927     0.077     2.008     2.216
   143   1 H        0.929     0.072     2.066     2.248
   144   1 H        1.859     0.421     0.437     1.031
   145   1 H        0.929     0.162     1.316     1.794
   146   1 H        0.929     0.101     1.778     2.085
   147   1 H        0.929     0.111     1.689     2.032
   148   1 H        0.929     0.097     1.814     2.106
   149   1 H        0.927     0.087     1.905     2.158
   150   1 H        1.900     0.243     0.898     1.480
   151   1 H        0.927     0.081     1.967     2.193
   152   1 H        0.927     0.083     1.951     2.184
   153   1 H        0.927     0.081     1.973     2.197
   154   1 H        0.927     0.078     2.001     2.212
   155   1 H        0.927     0.067     2.117     2.275
   156   1 H        0.927     0.080     1.980     2.201
   157   1 H        0.860     0.194     1.137     1.670
   158   1 H        0.860     0.175     1.246     1.748
   159   1 H        0.927     0.080     1.975     2.197
   160   1 H        0.927     0.048     2.348     2.396
   161   1 H        0.927     0.055     2.258     2.350
   162   1 H        0.927     0.045     2.378     2.411
   163   1 H        0.927     0.058     2.222     2.331
   164   1 H        0.927     0.056     2.244     2.343
   165   1 H        0.927     0.056     2.242     2.341
   166   1 H        0.927     0.049     2.337     2.391
   167   1 H        0.861     0.210     1.058     1.611
   168   1 H        0.927     0.088     1.903     2.157
   169   1 H        0.927     0.069     2.102     2.267
   170   1 H        0.927     0.070     2.087     2.259
   171   1 H        0.929     0.047     2.360     2.402
   172   1 H        0.929     0.045     2.386     2.415
   173   1 H        0.929     0.051     2.310     2.377
   174   1 H        0.929     0.044     2.390     2.417
   175   1 H        0.929     0.045     2.385     2.415
   176   1 H        0.861     0.208     1.065     1.617
   177   1 H        0.927     0.094     1.844     2.123
   178   1 H        0.926     0.056     2.243     2.342
   179   1 H        0.927     0.043     2.406     2.426
   180   1 H        0.927     0.053     2.285     2.364
   181   1 H        0.927     0.058     2.228     2.334
   182   1 H        0.927     0.051     2.311     2.377
   183   1 H        0.926     0.059     2.205     2.322
   184   1 H        0.927     0.041     2.439     2.442
   185   1 H        0.927     0.045     2.379     2.412
   186   1 H        0.926     0.046     2.374     2.410
   187   1 H        0.861     0.214     1.037     1.595
   188   1 H        0.927     0.101     1.777     2.085
   189   1 H        0.926     0.114     1.666     2.018
   190   1 H        0.927     0.113     1.669     2.020
   191   1 H        0.929     0.104     1.748     2.068
   192   1 H        0.861     0.244     0.908     1.492
   193   1 H        0.927     0.116     1.642     2.004
   194   1 H        0.926     0.105     1.737     2.061
   195   1 H        0.926     0.109     1.702     2.040
   196   1 H        0.861     0.251     0.879     1.469
   197   1 H        0.861     0.236     0.938     1.517
   198   1 H        0.861     0.235     0.943     1.521
   199   1 H        0.927     0.118     1.628     1.996
   200   1 H        0.927     0.117     1.636     2.000
   201   1 H        0.927     0.113     1.670     2.021
   202   1 H        0.929     0.103     1.757     2.073
   203   1 H        0.861     0.229     0.969     1.542
   204   1 H        0.927     0.089     1.887     2.148
   205   1 H        0.927     0.067     2.119     2.276
   206   1 H        0.927     0.088     1.902     2.157
   207   1 H        0.927     0.070     2.080     2.256
   208   1 H        0.927     0.088     1.896     2.153
   209   1 H        0.927     0.085     1.932     2.174
   210   1 H        0.927     0.079     1.991     2.207
   211   1 H        0.927     0.119     1.622     1.992
   212   1 H        0.927     0.120     1.616     1.988
   213   1 H        0.861     0.225     0.989     1.557
   214   1 H        0.927     0.089     1.886     2.148
   215   1 H        0.929     0.082     1.961     2.190
   216   1 H        0.926     0.086     1.919     2.166
   217   1 H        0.927     0.086     1.918     2.166
   218   1 H        0.927     0.066     2.131     2.283
   219   1 H        0.927     0.068     2.112     2.272
   220   1 H        0.927     0.093     1.854     2.129
   221   1 H        0.927     0.093     1.855     2.130
   222   1 H        0.861     0.245     0.901     1.487
   223   1 H        0.861     0.255     0.866     1.457
   224   1 H        0.861     0.248     0.890     1.478
   225   1 H        0.861     0.258     0.853     1.446
   226   1 H        0.860     0.194     1.136     1.669
   227   1 H        0.860     0.188     1.169     1.694
   228   1 H        0.927     0.114     1.664     2.017
   229   1 H        1.871     0.262     0.828     1.421
   230   1 H        0.927     0.076     2.020     2.222
   231   1 H        0.927     0.088     1.901     2.156
   232   1 H        0.804     0.342     0.608     1.225
   233   1 H        2.092     0.179     1.201     1.711
   234   1 H        0.980     0.024     2.662     2.550
   235   1 H        0.980    -0.006     3.159     2.778
   236   1 H        0.980    -0.008     3.187     2.790
   237   1 H        0.980     0.007     2.938     2.679
   238   1 H        0.980     0.015     2.803     2.616
   239   1 H        0.980    -0.003     3.097     2.750
   240   1 H        0.980     0.009     2.895     2.659
   241   1 H        0.980     0.005     2.972     2.694
   242   1 H        2.080     0.188     1.154     1.677
   243   1 H        0.980     0.020     2.729     2.581
   244   1 H        0.980    -0.007     3.173     2.784
   245   1 H        0.980     0.012     2.850     2.638
   246   1 H        0.980    -0.011     3.246     2.815
   247   1 H        0.980     0.003     2.996     2.705
   248   1 H        0.980    -0.010     3.230     2.808
   249   1 H        0.980    -0.003     3.097     2.750
   250   1 H        0.860     0.289     0.748     1.355
   251   1 H        0.860     0.301     0.711     1.321
   252   1 H        0.860     0.293     0.733     1.341
   253   1 H        0.860     0.230     0.964     1.538
   254   1 H        0.858     0.223     0.995     1.563

 Mol. C6AA /au·bohr⁶  :     537560.980354
 Mol. C8AA /au·bohr⁸  :   11712422.821986
 Mol. α(0) /au        :       1111.335432


Wiberg/Mayer (AO) data.
largest (>0.10) Wiberg bond orders for each atom

 ---------------------------------------------------------------------------
     #   Z sym  total        # sym  WBO       # sym  WBO       # sym  WBO
 ---------------------------------------------------------------------------
     1   7 N    2.964 --     2 C    1.007   128 H    0.956   129 H    0.948
     2   6 C    3.961 --     1 N    1.007     5 C    0.990     3 C    0.949
                           130 H    0.937
     3   6 C    3.947 --     4 O    1.628     6 N    1.299     2 C    0.949
     4   8 O    1.980 --     3 C    1.628     6 N    0.190
     5   6 C    3.983 --     2 C    0.990   131 H    0.982   132 H    0.978
                           133 H    0.977
     6   7 N    3.461 --     3 C    1.299     7 C    0.994   134 H    0.915
                             4 O    0.190
     7   6 C    3.964 --     8 C    1.016     6 N    0.994   135 H    0.929
                           136 H    0.924
     8   6 C    3.900 --     9 O    1.870     7 C    1.016   137 H    0.947
     9   8 O    2.048 --     8 C    1.870
    10   7 N    3.029 --    11 C    1.030   139 H    0.953   138 H    0.952
    11   6 C    3.952 --    10 N    1.030   140 H    0.949    12 C    0.938
                            14 C    0.921
    12   6 C    3.944 --    13 O    1.658    24 N    1.255    11 C    0.938
    13   8 O    1.987 --    12 C    1.658    24 N    0.186
    14   6 C    3.964 --    15 C    1.028   142 H    0.969   141 H    0.952
                            11 C    0.921
    15   6 C    3.757 --    16 C    1.381    17 C    1.157    14 C    1.028
    16   6 C    3.945 --    18 N    1.417    15 C    1.381   143 H    0.969
    17   6 C    3.908 --    19 C    1.190    15 C    1.157    20 C    1.026
                           144 H    0.305
    18   7 N    2.786 --    16 C    1.417    19 C    1.227
    19   6 C    3.943 --    21 C    1.349    18 N    1.227    17 C    1.190
    20   6 C    3.855 --    22 C    1.431    17 C    1.026   145 H    0.839
                           144 H    0.394
    21   6 C    3.937 --    23 C    1.448    19 C    1.349   146 H    0.962
    22   6 C    3.974 --    20 C    1.431    23 C    1.389   147 H    0.962
    23   6 C    3.910 --    21 C    1.448    22 C    1.389   148 H    0.965
    24   7 N    3.497 --    12 C    1.255    30 C    0.972    25 C    0.955
                            13 O    0.186
    25   6 C    3.936 --    26 C    0.978    28 C    0.970    24 N    0.955
                           149 H    0.944
    26   6 C    3.751 --    27 O    1.900    25 C    0.978   150 H    0.655
                           111 H    0.126
    27   8 O    2.027 --    26 C    1.900
    28   6 C    3.975 --    29 C    1.002   151 H    0.975   152 H    0.973
                            25 C    0.970
    29   6 C    3.987 --    30 C    1.004    28 C    1.002   154 H    0.977
                           153 H    0.976
    30   6 C    3.957 --    29 C    1.004    24 N    0.972   155 H    0.961
                           156 H    0.957
    31   7 N    2.966 --    32 C    1.022   158 H    0.945   157 H    0.930
    32   6 C    3.950 --    31 N    1.022   159 H    0.958    33 C    0.941
                            35 C    0.930
    33   6 C    3.942 --    34 O    1.641    38 N    1.284    32 C    0.941
    34   8 O    1.972 --    33 C    1.641    38 N    0.194
    35   6 C    3.952 --    36 C    1.006    37 C    0.997   160 H    0.971
                            32 C    0.930
    36   6 C    3.986 --    35 C    1.006   161 H    0.986   162 H    0.983
                           163 H    0.981
    37   6 C    3.984 --    35 C    0.997   164 H    0.986   165 H    0.982
                           166 H    0.974
    38   7 N    3.452 --    33 C    1.284    39 C    0.972   167 H    0.918
                            34 O    0.194
    39   6 C    3.960 --    38 N    0.972    42 C    0.961   168 H    0.950
                            40 C    0.940
    40   6 C    3.952 --    41 O    1.650    49 N    1.289    39 C    0.940
    41   8 O    1.980 --    40 C    1.650    49 N    0.195
    42   6 C    3.989 --    43 C    1.014   170 H    0.970   169 H    0.964
                            39 C    0.961
    43   6 C    3.987 --    44 C    1.414    45 C    1.410    42 C    1.014
                            48 C    0.107
    44   6 C    3.990 --    46 C    1.431    43 C    1.414   171 H    0.966
                            47 C    0.113
    45   6 C    3.991 --    47 C    1.444    43 C    1.410   172 H    0.969
                            46 C    0.106
    46   6 C    3.994 --    48 C    1.461    44 C    1.431   173 H    0.969
                            45 C    0.106
    47   6 C    3.990 --    45 C    1.444    48 C    1.422   174 H    0.968
                            44 C    0.113
    48   6 C    3.993 --    46 C    1.461    47 C    1.422   175 H    0.971
                            43 C    0.107
    49   7 N    3.450 --    40 C    1.289    50 C    0.959   176 H    0.923
                            41 O    0.195
    50   6 C    3.956 --    53 C    0.977    49 N    0.959   177 H    0.953
                            51 C    0.934
    51   6 C    3.947 --    52 O    1.610    57 N    1.320    50 C    0.934
    52   8 O    1.936 --    51 C    1.610    57 N    0.194
    53   6 C    3.988 --    55 C    1.009    54 C    0.981    50 C    0.977
                           178 H    0.964
    54   6 C    3.995 --    56 C    1.027    53 C    0.981   180 H    0.977
                           179 H    0.974
    55   6 C    3.993 --    53 C    1.009   181 H    0.984   183 H    0.981
                           182 H    0.980
    56   6 C    3.994 --    54 C    1.027   184 H    0.986   186 H    0.983
                           185 H    0.983
    57   7 N    3.477 --    51 C    1.320    58 C    0.964   187 H    0.924
                            52 O    0.194
    58   6 C    3.962 --    61 C    0.974    57 N    0.964   188 H    0.954
                            59 C    0.928
    59   6 C    3.947 --    60 O    1.608    67 N    1.331    58 C    0.928
    60   8 O    1.911 --    59 C    1.608    67 N    0.178
    61   6 C    3.983 --    62 C    1.024    58 C    0.974   189 H    0.944
                           190 H    0.941
    62   6 C    3.907 --    64 C    1.506    63 N    1.161    61 C    1.024
                            65 C    0.140
    63   7 N    3.020 --    65 C    1.645    62 C    1.161    66 N    0.122
    64   6 C    3.903 --    62 C    1.506    66 N    1.202   191 H    0.963
                            65 C    0.147
    65   6 C    3.711 --    66 N    1.702    63 N    1.645    64 C    0.147
                            62 C    0.140
    66   7 N    3.101 --    65 C    1.702    64 C    1.202    63 N    0.122
    67   7 N    3.491 --    59 C    1.331    68 C    1.006   192 H    0.892
                            60 O    0.178
    68   6 C    3.921 --    67 N    1.006    71 C    0.990   193 H    0.924
                            69 C    0.888
    69   6 C    3.931 --    70 O    1.612    75 N    1.350    68 C    0.888
    70   8 O    1.937 --    69 C    1.612    75 N    0.192
    71   6 C    3.939 --    68 C    0.990   195 H    0.955   194 H    0.951
                            72 C    0.916
    72   6 C    3.929 --    73 O    1.613    74 N    1.377    71 C    0.916
    73   8 O    1.905 --    72 C    1.613    74 N    0.194
    74   7 N    3.432 --    72 C    1.377   197 H    0.918   196 H    0.897
                            73 O    0.194
    75   7 N    3.487 --    69 C    1.350    76 C    0.955   198 H    0.903
                            70 O    0.192
    76   6 C    3.945 --    79 C    0.968    75 N    0.955   199 H    0.942
                            77 C    0.934
    77   6 C    3.954 --    78 O    1.623    85 N    1.324    76 C    0.934
    78   8 O    1.942 --    77 C    1.623    85 N    0.198
    79   6 C    3.975 --    80 C    1.022    76 C    0.968   201 H    0.946
                           200 H    0.938
    80   6 C    3.902 --    82 C    1.561    81 N    1.165    79 C    1.022
    81   7 N    3.117 --    83 C    1.743    80 C    1.165
    82   6 C    3.894 --    80 C    1.561    84 N    1.169   202 H    0.963
                            83 C    0.122
    83   6 C    3.409 --    81 N    1.743    84 N    1.347    82 C    0.122
    84   7 N    3.588 --    83 C    1.347    82 C    1.169   254 H    0.917
    85   7 N    3.483 --    77 C    1.324    86 C    0.972   203 H    0.903
                            78 O    0.198
    86   6 C    3.961 --    89 C    0.985    85 N    0.972   204 H    0.945
                            87 C    0.943
    87   6 C    3.947 --    88 O    1.622    94 N    1.303    86 C    0.943
    88   8 O    1.934 --    87 C    1.622    94 N    0.194
    89   6 C    3.986 --    90 C    1.007    86 C    0.985   205 H    0.968
                           206 H    0.964
    90   6 C    3.990 --    89 C    1.007    91 C    1.000   208 H    0.971
                           207 H    0.936
    91   6 C    3.984 --    92 C    1.012    90 C    1.000   210 H    0.974
                           209 H    0.968
    92   6 C    3.904 --    91 C    1.012   211 H    0.969   212 H    0.967
                            93 N    0.938
    93   7 N    3.644 --    92 C    0.938   250 H    0.905   251 H    0.898
                           252 H    0.849
    94   7 N    3.483 --    87 C    1.303    95 C    0.975   213 H    0.917
                            88 O    0.194
    95   6 C    3.965 --    96 C    0.977    94 N    0.975    98 C    0.960
                           214 H    0.959
    96   6 C    3.898 --    97 O    1.908    95 C    0.977   215 H    0.950
    97   8 O    2.041 --    96 C    1.908
    98   6 C    3.982 --    99 C    1.006   216 H    0.970   217 H    0.968
                            95 C    0.960
    99   6 C    3.990 --    98 C    1.006   100 C    1.002   219 H    0.972
                           218 H    0.972
   100   6 C    3.953 --    99 C    1.002   101 N    0.982   220 H    0.960
                           221 H    0.959
   101   7 N    3.472 --   102 C    1.319   100 C    0.982   253 H    0.913
                           104 N    0.104   103 N    0.100
   102   6 C    3.977 --   104 N    1.320   101 N    1.319   103 N    1.307
   103   7 N    3.384 --   102 C    1.307   223 H    0.918   222 H    0.915
                           101 N    0.100
   104   7 N    3.393 --   102 C    1.320   224 H    0.919   225 H    0.915
                           101 N    0.104
   105   7 N    3.013 --   106 C    1.032   226 H    0.948   227 H    0.942
   106   6 C    3.924 --   105 N    1.032   107 C    0.971   109 C    0.938
                           228 H    0.902
   107   6 C    3.706 --   108 O    1.896   106 C    0.971   229 H    0.627
   108   8 O    2.050 --   107 C    1.896
   109   6 C    3.949 --   110 O    1.017   231 H    0.958   230 H    0.958
                           106 C    0.938
   110   8 O    1.949 --   109 C    1.017   232 H    0.868
   111   1 H    0.899 --   233 H    0.722    26 C    0.126
   112   1 H    0.999 --   234 H    0.990
   113   1 H    1.000 --   235 H    0.991
   114   1 H    0.999 --   236 H    0.916
   115   1 H    1.000 --   237 H    0.962
   116   1 H    1.000 --   238 H    0.945
   117   1 H    0.999 --   239 H    0.886
   118   1 H    0.999 --   240 H    0.947
   119   1 H    1.000 --   241 H    0.929
   120   1 H    0.852 --   242 H    0.697
   121   1 H    1.000 --   243 H    0.983
   122   1 H    0.999 --   244 H    0.974
   123   1 H    0.999 --   245 H    0.943
   124   1 H    0.999 --   246 H    0.962
   125   1 H    0.999 --   247 H    0.970
   126   1 H    1.000 --   248 H    0.987
   127   1 H    1.000 --   249 H    0.998
   128   1 H    0.969 --     1 N    0.956
   129   1 H    0.961 --     1 N    0.948
   130   1 H    0.975 --     2 C    0.937
   131   1 H    0.993 --     5 C    0.982
   132   1 H    0.993 --     5 C    0.978
   133   1 H    0.996 --     5 C    0.977
   134   1 H    0.945 --     6 N    0.915
   135   1 H    0.985 --     7 C    0.929
   136   1 H    0.982 --     7 C    0.924
   137   1 H    0.993 --     8 C    0.947
   138   1 H    0.963 --    10 N    0.952
   139   1 H    0.969 --    10 N    0.953
   140   1 H    0.992 --    11 C    0.949
   141   1 H    0.987 --    14 C    0.952
   142   1 H    0.992 --    14 C    0.969
   143   1 H    0.993 --    16 C    0.969
   144   1 H    0.822 --    20 C    0.394    17 C    0.305
   145   1 H    0.972 --    20 C    0.839
   146   1 H    0.988 --    21 C    0.962
   147   1 H    0.987 --    22 C    0.962
   148   1 H    0.990 --    23 C    0.965
   149   1 H    0.991 --    25 C    0.944
   150   1 H    0.908 --    26 C    0.655   233 H    0.204
   151   1 H    0.992 --    28 C    0.975
   152   1 H    0.992 --    28 C    0.973
   153   1 H    0.993 --    29 C    0.976
   154   1 H    0.994 --    29 C    0.977
   155   1 H    0.993 --    30 C    0.961
   156   1 H    0.992 --    30 C    0.957
   157   1 H    0.958 --    31 N    0.930
   158   1 H    0.967 --    31 N    0.945
   159   1 H    0.992 --    32 C    0.958
   160   1 H    0.997 --    35 C    0.971
   161   1 H    0.997 --    36 C    0.986
   162   1 H    0.997 --    36 C    0.983
   163   1 H    0.991 --    36 C    0.981
   164   1 H    0.996 --    37 C    0.986
   165   1 H    0.993 --    37 C    0.982
   166   1 H    0.998 --    37 C    0.974
   167   1 H    0.956 --    38 N    0.918
   168   1 H    0.992 --    39 C    0.950
   169   1 H    0.995 --    42 C    0.964
   170   1 H    0.995 --    42 C    0.970
   171   1 H    0.998 --    44 C    0.966
   172   1 H    0.998 --    45 C    0.969
   173   1 H    0.997 --    46 C    0.969
   174   1 H    0.998 --    47 C    0.968
   175   1 H    0.998 --    48 C    0.971
   176   1 H    0.957 --    49 N    0.923
   177   1 H    0.991 --    50 C    0.953
   178   1 H    0.997 --    53 C    0.964
   179   1 H    0.998 --    54 C    0.974
   180   1 H    0.997 --    54 C    0.977
   181   1 H    0.997 --    55 C    0.984
   182   1 H    0.997 --    55 C    0.980
   183   1 H    0.996 --    55 C    0.981
   184   1 H    0.998 --    56 C    0.986
   185   1 H    0.997 --    56 C    0.983
   186   1 H    0.998 --    56 C    0.983
   187   1 H    0.954 --    57 N    0.924
   188   1 H    0.989 --    58 C    0.954
   189   1 H    0.986 --    61 C    0.944
   190   1 H    0.985 --    61 C    0.941
   191   1 H    0.989 --    64 C    0.963
   192   1 H    0.940 --    67 N    0.892
   193   1 H    0.975 --    68 C    0.924
   194   1 H    0.987 --    71 C    0.951
   195   1 H    0.984 --    71 C    0.955
   196   1 H    0.937 --    74 N    0.897
   197   1 H    0.941 --    74 N    0.918
   198   1 H    0.945 --    75 N    0.903
   199   1 H    0.986 --    76 C    0.942
   200   1 H    0.978 --    79 C    0.938
   201   1 H    0.984 --    79 C    0.946
   202   1 H    0.989 --    82 C    0.963
   203   1 H    0.947 --    85 N    0.903
   204   1 H    0.990 --    86 C    0.945
   205   1 H    0.995 --    89 C    0.968
   206   1 H    0.992 --    89 C    0.964
   207   1 H    0.995 --    90 C    0.936
   208   1 H    0.992 --    90 C    0.971
   209   1 H    0.993 --    91 C    0.968
   210   1 H    0.994 --    91 C    0.974
   211   1 H    0.986 --    92 C    0.969
   212   1 H    0.985 --    92 C    0.967
   213   1 H    0.950 --    94 N    0.917
   214   1 H    0.992 --    95 C    0.959
   215   1 H    0.992 --    96 C    0.950
   216   1 H    0.993 --    98 C    0.970
   217   1 H    0.992 --    98 C    0.968
   218   1 H    0.996 --    99 C    0.972
   219   1 H    0.995 --    99 C    0.972
   220   1 H    0.991 --   100 C    0.960
   221   1 H    0.991 --   100 C    0.959
   222   1 H    0.940 --   103 N    0.915
   223   1 H    0.935 --   103 N    0.918
   224   1 H    0.938 --   104 N    0.919
   225   1 H    0.933 --   104 N    0.915
   226   1 H    0.962 --   105 N    0.948
   227   1 H    0.956 --   105 N    0.942
   228   1 H    0.972 --   106 C    0.902
   229   1 H    0.881 --   107 C    0.627   242 H    0.199
   230   1 H    0.990 --   109 C    0.958
   231   1 H    0.992 --   109 C    0.958
   232   1 H    0.883 --   110 O    0.868
   233   1 H    0.949 --   111 H    0.722   150 H    0.204
   234   1 H    0.999 --   112 H    0.990
   235   1 H    0.999 --   113 H    0.991
   236   1 H    1.000 --   114 H    0.916
   237   1 H    1.000 --   115 H    0.962
   238   1 H    1.000 --   116 H    0.945
   239   1 H    0.999 --   117 H    0.886
   240   1 H    1.000 --   118 H    0.947
   241   1 H    1.000 --   119 H    0.929
   242   1 H    0.929 --   120 H    0.697   229 H    0.199
   243   1 H    0.999 --   121 H    0.983
   244   1 H    0.999 --   122 H    0.974
   245   1 H    0.999 --   123 H    0.943
   246   1 H    0.998 --   124 H    0.962
   247   1 H    0.998 --   125 H    0.970
   248   1 H    1.000 --   126 H    0.987
   249   1 H    1.000 --   127 H    0.998
   250   1 H    0.917 --    93 N    0.905
   251   1 H    0.909 --    93 N    0.898
   252   1 H    0.914 --    93 N    0.849
   253   1 H    0.947 --   101 N    0.913
   254   1 H    0.950 --    84 N    0.917
 ---------------------------------------------------------------------------

Topologies differ in total number of bonds
Writing topology from bond orders to xtbtopo.mol

molecular dipole:
                 x           y           z       tot (Debye)
 q only:     -134.698      66.390      71.971
   full:     -134.274      68.786      71.622     424.486
molecular quadrupole (traceless):
                xx          xy          yy          xz          yz          zz
 q only:     3023.406   -2552.276   -1387.162   -3035.890    1227.022   -1636.244
  q+dip:     2977.753   -2626.012   -1292.338   -2998.463    1273.013   -1685.415
   full:     2975.350   -2628.021   -1290.853   -2999.102    1273.344   -1684.498


           -------------------------------------------------
          | TOTAL ENERGY             -351.733916133077 Eh   |
          | GRADIENT NORM               1.347241428611 Eh/α |
          | HOMO-LUMO GAP               0.015359543122 eV   |
           -------------------------------------------------
########################################################################
[WARNING] Runtime exception occurred
-2- restart_readRestart: Dimension missmatch in restart file.
-1- restart_readRestart: Number of electron missmatch in restart file.
########################################################################

------------------------------------------------------------------------
 * finished run on 2025/05/05 at 16:52:45.054     
------------------------------------------------------------------------
 total:
 * wall-time:     0 d,  0 h,  0 min,  2.132 sec
 *  cpu-time:     0 d,  0 h,  1 min,  6.671 sec
 * ratio c/w:    31.268 speedup
 SCF:
 * wall-time:     0 d,  0 h,  0 min,  2.104 sec
 *  cpu-time:     0 d,  0 h,  1 min,  5.922 sec
 * ratio c/w:    31.325 speedup

