      -----------------------------------------------------------      
     |                   =====================                   |     
     |                           x T B                           |     
     |                   =====================                   |     
     |                         S. Grimme                         |     
     |          Mulliken Center for Theoretical Chemistry        |     
     |                    University of Bonn                     |     
      -----------------------------------------------------------      

   * xtb version 6.7.1 (edcfbbe) compiled by 'conda@afd1a870197c' on 2025-04-11

   xtb is free software: you can redistribute it and/or modify it under
   the terms of the GNU Lesser General Public License as published by
   the Free Software Foundation, either version 3 of the License, or
   (at your option) any later version.
   
   xtb is distributed in the hope that it will be useful,
   but WITHOUT ANY WARRANTY; without even the implied warranty of
   MERCHANTABILITY or FITNESS FOR A PARTICULAR PURPOSE.  See the
   GNU Lesser General Public License for more details.
   
   Cite this work as:
   * C. Bannwarth, E. Caldeweyher, S. Ehlert, A. Hansen, P. Pracht,
     J. Seibert, S. Spicher, S. Grimme, WIREs Comput. Mol. Sci., 2020, 11,
     e01493. DOI: 10.1002/wcms.1493
   
   for GFN2-xTB:
   * C. Bannwarth, S. Ehlert and S. Grimme., J. Chem. Theory Comput., 2019,
     15, 1652-1671. DOI: 10.1021/acs.jctc.8b01176
   for GFN1-xTB:
   * S. Grimme, C. Bannwarth, P. Shushkov, J. Chem. Theory Comput., 2017,
     13, 1989-2009. DOI: 10.1021/acs.jctc.7b00118
   for GFN0-xTB:
   * P. Pracht, E. Caldeweyher, S. Ehlert, S. Grimme, ChemRxiv, 2019, preprint.
     DOI: 10.26434/chemrxiv.8326202.v1
   for GFN-FF:
   * S. Spicher and S. Grimme, Angew. Chem. Int. Ed., 2020, 59, 15665-15673.
     DOI: 10.1002/anie.202004239
   
   for ALPB and GBSA implicit solvation:
   * S. Ehlert, M. Stahn, S. Spicher, S. Grimme, J. Chem. Theory Comput.,
     2021, 17, 4250-4261. DOI: 10.1021/acs.jctc.1c00471
   
   for ddCOSMO and CPCM-X implicit solvation:
   * M. Stahn, S. Ehlert, S. Grimme, J. Phys. Chem. A,
     2023, XX, XXXX-XXXX. DOI: 10.1021/acs.jpca.3c04382
   
   for DFT-D4:
   * E. Caldeweyher, C. Bannwarth and S. Grimme, J. Chem. Phys., 2017,
     147, 034112. DOI: 10.1063/1.4993215
   * E. Caldeweyher, S. Ehlert, A. Hansen, H. Neugebauer, S. Spicher,
     C. Bannwarth and S. Grimme, J. Chem. Phys., 2019, 150, 154122.
     DOI: 10.1063/1.5090222
   * E. Caldeweyher, J.-M. Mewes, S. Ehlert and S. Grimme, Phys. Chem. Chem. Phys.
     2020, 22, 8499-8512. DOI: 10.1039/D0CP00502A
   
   for sTDA-xTB:
   * S. Grimme and C. Bannwarth, J. Chem. Phys., 2016, 145, 054103.
     DOI: 10.1063/1.4959605
   
   in the mass-spec context:
   * V. Asgeirsson, C. Bauer and S. Grimme, Chem. Sci., 2017, 8, 4879.
     DOI: 10.1039/c7sc00601b
   * J. Koopman and S. Grimme, ACS Omega 2019, 4, 12, 15120-15133.
     DOI: 10.1021/acsomega.9b02011
   
   for metadynamics refer to:
   * S. Grimme, J. Chem. Theory Comput., 2019, 155, 2847-2862
     DOI: 10.1021/acs.jctc.9b00143
   
   for SPH calculations refer to:
   * S. Spicher and S. Grimme, J. Chem. Theory Comput., 2021, 17, 1701-1714
     DOI: 10.1021/acs.jctc.0c01306
   
   for ONIOM refer to:
   * C. Plett, A. Katbashev, S. Ehlert, S. Grimme, M. Bursch,
     Phys. Chem. Chem. Phys., 2023, 25, 17860-17868. DOI: 10.1039/D3CP02178E
   
   for DIPRO refer to:
   * J. Kohn, N. Gildemeister, S. Grimme, D. Fazzi, A. Hansen,
     J. Chem. Phys., 2023, just accepted.
   
   for PTB refer to:
   * S. Grimme, M. Mueller, A. Hansen, J. Chem. Phys., 2023, 158, 124111.
     DOI: 10.1063/5.0137838
   
   with help from (in alphabetical order)
   P. Atkinson, C. Bannwarth, F. Bohle, G. Brandenburg, E. Caldeweyher
   M. Checinski, S. Dohm, S. Ehlert, S. Ehrlich, I. Gerasimov, C. Hölzer
   A. Katbashev, J. Kohn, J. Koopman, C. Lavigne, S. Lehtola, F. März, M. Müller,
   F. Musil, H. Neugebauer, J. Pisarek, C. Plett, P. Pracht, F. Pultar,
   J. Seibert, P. Shushkov, S. Spicher, M. Stahn, M. Steiner, T. Strunk,
   J. Stückrath, T. Rose, and J. Unsleber
   
 * started run on 2025/05/05 at 16:52:40.838     
   ID    Z sym.   atoms
    1    7 N      1, 6, 10, 18, 24, 31, 38, 49, 57, 63, 66, 67, 74, 75, 81,
                  84, 85, 93, 94, 101, 103-105
    2    6 C      2, 3, 5, 7, 8, 11, 12, 14-17, 19-23, 25, 26, 28-30, 32, 33,
                  35-37, 39, 40, 42-48, 50, 51, 53-56, 58, 59, 61, 62, 64,
                  65, 68, 69, 71, 72, 76, 77, 79, 80, 82, 83, 86, 87, 89-92,
                  95, 96, 98-100, 102, 106, 107, 109
    3    8 O      4, 9, 13, 27, 34, 41, 52, 60, 70, 73, 78, 88, 97, 108, 110
    4    1 H      111-254

           -------------------------------------------------
          |                Calculation Setup                |
           -------------------------------------------------

          program call               : xtb /tmp/tmpmr851cc2/HID/input.xyz --alpb ether --chrg 5 --input /tmp/tmpmr851cc2/HID/constraints.inp --gfn 2
          hostname                   : fedora
          coordinate file            : /tmp/tmpmr851cc2/HID/input.xyz
          omp threads                :                    32


molecular fragmentation (1/2 indicates fragments):
111111111222222222222222222222222222222222222222222222222222222222222222
222222222222222222222222222222222222222222222222222222211111111112222222
222222222222222222222222222222222222222222222222222222222222222222222222
22222222222222222222222222222222222222
# atoms in fragment 1/2:    19   235
 fragment masses (1/2) :      130.15     1441.92
CMA distance (Bohr)    :  12.336
constraining FC (au)   :  0.0500
########################################################################
[WARNING] Please study the warnings concerning your input carefully
-1- readin_getIntValue: could not parse 'S'
########################################################################

           -------------------------------------------------
          |                 G F N 2 - x T B                 |
           -------------------------------------------------

        Reference                      10.1021/acs.jctc.8b01176
      * Hamiltonian:
        H0-scaling (s, p, d)           1.850000    2.230000    2.230000
        zeta-weighting                 0.500000
      * Dispersion:
        s8                             2.700000
        a1                             0.520000
        a2                             5.000000
        s9                             5.000000
      * Repulsion:
        kExp                           1.500000    1.000000
        rExp                           1.000000
      * Coulomb:
        alpha                          2.000000
        third order                    shell-resolved
        anisotropic                    true
        a3                             3.000000
        a5                             4.000000
        cn-shift                       1.200000
        cn-exp                         4.000000
        max-rad                        5.000000

      * Solvation model:               ALPB
        Solvent                        ether
        Parameter file                 internal GFN2-xTB/ALPB
        Dielectric constant                4.3300E+00
        Reference state                gsolv [1 M gas/solution]
        Free energy shift                  4.9534E-03 Eh       3.1083E+00 kcal/mol
        Temperature                        2.9815E+02 K
        Density                            7.1300E-01 kg/L
        Solvent mass                       7.4120E+01 g/mol
        Interaction kernel             P16
        Born radius scaling (c1)           1.5847E+00
        Born radii integrator          GBOBC
        Born offset                        0.0000E+00 a0       0.0000E+00 AA
        H-bond correction              true
        Ion screening                  false
        Surface tension                    1.0000E-05 Eh       1.5569E+01 dyn/cm
        Grid points                               230 per atom

          ...................................................
          :                      SETUP                      :
          :.................................................:
          :  # basis functions                 584          :
          :  # atomic orbitals                 584          :
          :  # shells                          364          :
          :  # electrons                       632          :
          :  max. iterations                   250          :
          :  Hamiltonian                  GFN2-xTB          :
          :  restarted?                      false          :
          :  GBSA solvation                   true          :
          :  PC potential                    false          :
          :  electronic temp.          300.0000000     K    :
          :  accuracy                    1.0000000          :
          :  -> integral cutoff          0.2500000E+02      :
          :  -> integral neglect         0.1000000E-07      :
          :  -> SCF convergence          0.1000000E-05 Eh   :
          :  -> wf. convergence          0.1000000E-03 e    :
          :  Broyden damping             0.4000000          :
          :  net charge                          5          :
          :  unpaired electrons                  0          :
          ...................................................

 iter      E             dE          RMSdq      gap      omega  full diag
   1   -354.8778715 -0.354878E+03  0.446E+00    0.04       0.0  T
   2   -351.4400438  0.343783E+01  0.406E+00    0.11       1.0  T
   3   -356.1441355 -0.470409E+01  0.277E+00    0.01       1.0  T
   4   -356.9719138 -0.827778E+00  0.212E+00    0.21       1.0  T
   5   -355.9338053  0.103811E+01  0.209E+00    0.40       1.0  T
   6   -356.7243832 -0.790578E+00  0.184E+00    0.17       1.0  T
   7   -356.5086946  0.215689E+00  0.197E+00    0.15       1.0  T
   8   -357.6034106 -0.109472E+01  0.124E+00    0.05       1.0  T
   9   -357.2667275  0.336683E+00  0.144E+00    0.05       1.0  T
  10   -357.6398393 -0.373112E+00  0.114E+00    0.21       1.0  T
  11   -357.9659148 -0.326075E+00  0.873E-01    0.03       1.0  T
  12   -357.8833211  0.825937E-01  0.893E-01    0.03       1.0  T
  13   -357.8527430  0.305781E-01  0.861E-01    0.02       1.0  T
  14   -358.0237056 -0.170963E+00  0.617E-01    0.08       1.0  T
  15   -357.9729129  0.507927E-01  0.639E-01    0.09       1.0  T
  16   -357.8514444  0.121469E+00  0.804E-01    0.08       1.0  T
  17   -358.0403201 -0.188876E+00  0.468E-01    0.01       1.0  T
  18   -358.0120342  0.282860E-01  0.520E-01    0.06       1.0  T
  19   -358.0852742 -0.732400E-01  0.339E-01    0.00       1.0  T
  20   -358.1138928 -0.286186E-01  0.273E-01    0.05       1.0  T
  21   -358.1187877 -0.489482E-02  0.232E-01    0.02       1.0  T
  22   -358.1242489 -0.546128E-02  0.210E-01    0.01       1.0  T
  23   -358.1256452 -0.139627E-02  0.191E-01    0.02       1.0  T
  24   -357.9252223  0.200423E+00  0.676E-01    0.01       1.0  T
  25   -358.1249945 -0.199772E+00  0.204E-01    0.02       1.0  T
  26   -358.1277233 -0.272875E-02  0.184E-01    0.03       1.0  T
  27   -358.1198307  0.789260E-02  0.236E-01    0.01       1.0  T
  28   -358.1286654 -0.883474E-02  0.172E-01    0.01       1.0  T
  29   -358.1324152 -0.374979E-02  0.154E-01    0.01       1.0  T
  30   -358.1286837  0.373149E-02  0.179E-01    0.01       1.0  T
  31   -358.1358260 -0.714229E-02  0.109E-01    0.01       1.0  T
  32   -358.1364718 -0.645862E-03  0.968E-02    0.02       1.0  T
  33   -358.1386491 -0.217728E-02  0.628E-02    0.02       1.0  T
  34   -358.1391996 -0.550467E-03  0.526E-02    0.02       1.0  T
  35   -358.1399035 -0.703923E-03  0.322E-02    0.02       1.0  T
  36   -358.1401770 -0.273504E-03  0.175E-02    0.02       1.0  T
  37   -358.1402552 -0.781562E-04  0.118E-02    0.02       1.0  T
  38   -358.1402659 -0.107191E-04  0.105E-02    0.02       1.0  T
  39   -358.1403011 -0.352134E-04  0.491E-03    0.02       1.3  T
  40   -358.1403070 -0.591316E-05  0.283E-03    0.02       2.2  T
  41   -358.1403093 -0.223172E-05  0.169E-03    0.02       3.7  T
  42   -358.1403100 -0.708094E-06  0.911E-04    0.02       6.9  T
  43   -358.1403102 -0.204487E-06  0.526E-04    0.02      11.9  T

   *** convergence criteria satisfied after 43 iterations ***

         #    Occupation            Energy/Eh            Energy/eV
      -------------------------------------------------------------
         1        2.0000           -0.8240985             -22.4249
       ...           ...                  ...                  ...
       310        1.9771           -0.4631286             -12.6024
       311        1.9031           -0.4617242             -12.5642
       312        1.8506           -0.4612858             -12.5522
       313        1.8460           -0.4612545             -12.5514
       314        1.8035           -0.4610013             -12.5445
       315        1.7735           -0.4608503             -12.5404
       316        1.3496           -0.4595886             -12.5060 (HOMO)
       317        0.9597           -0.4588184             -12.4851 (LUMO)
       318        0.4553           -0.4577345             -12.4556
       319        0.0918           -0.4560121             -12.4087
       320                         -0.3923222             -10.6756
       321                         -0.3809605             -10.3665
       ...                                ...                  ...
       584                          2.1786612              59.2844
      -------------------------------------------------------------
                  HL-Gap            0.0007702 Eh            0.0210 eV
             Fermi-level           -0.4588950 Eh          -12.4872 eV

 SCC (total)                   0 d,  0 h,  0 min,  2.035 sec
 SCC setup                      ...        0 min,  0.004 sec (  0.194%)
 Dispersion                     ...        0 min,  0.013 sec (  0.637%)
 classical contributions        ...        0 min,  0.000 sec (  0.015%)
 integral evaluation            ...        0 min,  0.022 sec (  1.063%)
 iterations                     ...        0 min,  1.920 sec ( 94.329%)
 molecular gradient             ...        0 min,  0.074 sec (  3.641%)
 printout                       ...        0 min,  0.002 sec (  0.120%)

         :::::::::::::::::::::::::::::::::::::::::::::::::::::
         ::                     SUMMARY                     ::
         :::::::::::::::::::::::::::::::::::::::::::::::::::::
         :: total energy            -351.740569309638 Eh    ::
         :: total w/o Gsasa/hb      -351.622944062732 Eh    ::
         :: gradient norm              1.346714188568 Eh/a0 ::
         :: HOMO-LUMO gap              0.020957194611 eV    ::
         ::.................................................::
         :: SCC energy              -358.119225733923 Eh    ::
         :: -> isotropic ES            1.514150078937 Eh    ::
         :: -> anisotropic ES          0.026716400609 Eh    ::
         :: -> anisotropic XC          0.232779345168 Eh    ::
         :: -> dispersion             -0.284944096099 Eh    ::
         :: -> Gsolv                  -0.816328888513 Eh    ::
         ::    -> Gelec               -0.698703641607 Eh    ::
         ::    -> Gsasa               -0.094445293142 Eh    ::
         ::    -> Ghb                 -0.028133391341 Eh    ::
         ::    -> Gshift               0.004953437577 Eh    ::
         :: repulsion energy           6.378656424285 Eh    ::
         :: add. restraining           0.000000000000 Eh    ::
         :: total charge               5.000000000076 e     ::
         :::::::::::::::::::::::::::::::::::::::::::::::::::::

           -------------------------------------------------
          |                Property Printout                |
           -------------------------------------------------

    * Orbital Energies and Occupations

         #    Occupation            Energy/Eh            Energy/eV
      -------------------------------------------------------------
         1        2.0000           -0.8240985             -22.4249
       ...           ...                  ...                  ...
       304        2.0000           -0.4713396             -12.8258
       305        2.0000           -0.4710504             -12.8179
       306        2.0000           -0.4705033             -12.8030
       307        1.9999           -0.4682089             -12.7406
       308        1.9990           -0.4661393             -12.6843
       309        1.9909           -0.4640111             -12.6264
       310        1.9771           -0.4631286             -12.6024
       311        1.9031           -0.4617242             -12.5642
       312        1.8506           -0.4612858             -12.5522
       313        1.8460           -0.4612545             -12.5514
       314        1.8035           -0.4610013             -12.5445
       315        1.7735           -0.4608503             -12.5404
       316        1.3496           -0.4595886             -12.5060 (HOMO)
       317        0.9597           -0.4588184             -12.4851 (LUMO)
       318        0.4553           -0.4577345             -12.4556
       319        0.0918           -0.4560121             -12.4087
       320                         -0.3923222             -10.6756
       321                         -0.3809605             -10.3665
       322                         -0.3719526             -10.1213
       323                         -0.3624081              -9.8616
       324                         -0.3508636              -9.5475
       325                         -0.3171855              -8.6311
       326                         -0.3138716              -8.5409
       327                         -0.3097402              -8.4285
       ...                                ...                  ...
       584                          2.1786612              59.2844
      -------------------------------------------------------------
                  HL-Gap            0.0007702 Eh            0.0210 eV
             Fermi-level           -0.4588950 Eh          -12.4872 eV

     #   Z          covCN         q      C6AA      α(0)
     1   7 N        2.631    -0.344    28.856     7.978
     2   6 C        3.792     0.034    20.008     6.370
     3   6 C        2.766     0.273    22.383     7.748
     4   8 O        0.860    -0.451    22.728     6.392
     5   6 C        3.765    -0.124    22.921     6.824
     6   7 N        2.688    -0.171    24.703     7.382
     7   6 C        3.750    -0.029    21.156     6.560
     8   6 C        2.763     0.202    23.705     7.973
     9   8 O        0.856    -0.365    20.999     6.144
    10   7 N        2.627    -0.315    28.111     7.874
    11   6 C        3.782     0.022    20.225     6.406
    12   6 C        2.761     0.256    22.689     7.801
    13   8 O        0.858    -0.435    22.382     6.343
    14   6 C        3.808    -0.089    22.187     6.705
    15   6 C        3.036    -0.033    28.774     8.798
    16   6 C        2.992     0.024    27.459     8.596
    17   6 C        4.007    -0.035    21.122     6.529
    18   7 N        1.896    -0.239    27.096     7.717
    19   6 C        3.056     0.097    25.807     8.331
    20   6 C        3.840    -0.114    22.651     6.770
    21   6 C        2.908    -0.022    28.545     8.761
    22   6 C        2.912    -0.017    28.435     8.744
    23   6 C        2.920    -0.025    28.617     8.772
    24   7 N        2.756    -0.061    22.427     7.034
    25   6 C        3.812     0.032    20.023     6.369
    26   6 C        2.914     0.104    25.708     8.314
    27   8 O        0.857    -0.287    19.544     5.927
    28   6 C        3.820    -0.077    21.964     6.670
    29   6 C        3.828    -0.082    22.049     6.681
    30   6 C        3.755    -0.019    20.964     6.529
    31   7 N        2.630    -0.339    28.723     7.960
    32   6 C        3.789     0.012    20.385     6.430
    33   6 C        2.752     0.272    22.402     7.750
    34   8 O        0.860    -0.471    23.143     6.450
    35   6 C        3.844    -0.027    21.018     6.521
    36   6 C        3.755    -0.129    23.036     6.844
    37   6 C        3.753    -0.128    23.023     6.842
    38   7 N        2.694    -0.182    24.950     7.419
    39   6 C        3.797     0.017    20.297     6.415
    40   6 C        2.762     0.282    22.223     7.720
    41   8 O        0.861    -0.478    23.300     6.472
    42   6 C        3.818    -0.090    22.200     6.706
    43   6 C        2.980     0.000    28.015     8.682
    44   6 C        2.946    -0.053    29.306     8.879
    45   6 C        2.936    -0.049    29.220     8.865
    46   6 C        2.940    -0.037    28.928     8.821
    47   6 C        2.936    -0.033    28.816     8.804
    48   6 C        2.951    -0.035    28.876     8.814
    49   7 N        2.691    -0.179    24.883     7.409
    50   6 C        3.801     0.015    20.320     6.418
    51   6 C        2.751     0.266    22.502     7.768
    52   8 O        0.858    -0.488    23.529     6.503
    53   6 C        3.856    -0.034    21.146     6.540
    54   6 C        3.805    -0.073    21.901     6.662
    55   6 C        3.760    -0.137    23.189     6.865
    56   6 C        3.760    -0.122    22.886     6.820
    57   7 N        2.682    -0.165    24.581     7.363
    58   6 C        3.792     0.019    20.271     6.412
    59   6 C        2.757     0.264    22.540     7.775
    60   8 O        0.858    -0.494    23.658     6.521
    61   6 C        3.812    -0.088    22.162     6.701
    62   6 C        3.079     0.068    26.388     8.422
    63   7 N        1.983    -0.192    25.941     7.553
    64   6 C        3.036     0.010    27.750     8.640
    65   6 C        2.081     0.202    26.163     8.263
    66   7 N        1.984    -0.174    25.527     7.493
    67   7 N        2.690    -0.133    23.894     7.260
    68   6 C        3.804     0.024    20.163     6.393
    69   6 C        2.755     0.274    22.376     7.746
    70   8 O        0.860    -0.454    22.798     6.402
    71   6 C        3.812    -0.107    22.528     6.756
    72   6 C        2.739     0.291    22.069     7.692
    73   8 O        0.860    -0.465    23.033     6.435
    74   7 N        2.641    -0.250    26.506     7.646
    75   7 N        2.684    -0.164    24.550     7.359
    76   6 C        3.802     0.007    20.463     6.440
    77   6 C        2.787     0.273    22.387     7.750
    78   8 O        0.861    -0.482    23.385     6.484
    79   6 C        3.838    -0.091    22.207     6.704
    80   6 C        3.096     0.042    26.939     8.506
    81   7 N        2.836    -0.052    22.246     7.005
    82   6 C        3.048     0.004    27.887     8.661
    83   6 C        2.110     0.116    28.025     8.554
    84   7 N        1.977    -0.181    25.695     7.518
    85   7 N        2.690    -0.154    24.325     7.325
    86   6 C        3.818     0.017    20.273     6.408
    87   6 C        2.760     0.268    22.468     7.762
    88   8 O        0.857    -0.491    23.582     6.511
    89   6 C        3.817    -0.081    22.023     6.679
    90   6 C        3.809    -0.098    22.356     6.731
    91   6 C        3.804    -0.105    22.499     6.753
    92   6 C        3.733    -0.053    21.626     6.637
    93   7 N        3.485    -0.178    24.843     7.403
    94   7 N        2.699    -0.147    24.190     7.305
    95   6 C        3.796     0.026    20.138     6.390
    96   6 C        2.771     0.188    23.975     8.019
    97   8 O        0.856    -0.351    20.734     6.105
    98   6 C        3.818    -0.092    22.232     6.711
    99   6 C        3.806    -0.087    22.148     6.699
   100   6 C        3.746    -0.033    21.228     6.572
   101   7 N        2.699    -0.137    23.961     7.270
   102   6 C        2.734     0.231    23.151     7.878
   103   7 N        2.647    -0.261    26.772     7.685
   104   7 N        2.658    -0.260    26.743     7.680
   105   7 N        2.628    -0.313    28.059     7.867
   106   6 C        3.780     0.023    20.205     6.404
   107   6 C        2.919     0.110    25.582     8.294
   108   8 O        0.856    -0.258    19.035     5.849
   109   6 C        3.680     0.065    19.700     6.357
   110   8 O        1.654    -0.459    22.033     6.337
   111   1 H        0.980    -0.045     3.952     3.106
   112   1 H        0.980    -0.023     3.483     2.916
   113   1 H        0.980     0.008     2.907     2.664
   114   1 H        0.980     0.023     2.681     2.559
   115   1 H        0.980    -0.017     3.356     2.863
   116   1 H        0.980    -0.020     3.413     2.887
   117   1 H        0.980     0.028     2.609     2.524
   118   1 H        0.980    -0.023     3.473     2.912
   119   1 H        0.980    -0.014     3.305     2.841
   120   1 H        0.980    -0.019     3.404     2.883
   121   1 H        0.980    -0.015     3.326     2.850
   122   1 H        0.980     0.004     2.981     2.698
   123   1 H        0.980    -0.003     3.098     2.750
   124   1 H        0.980     0.011     2.861     2.643
   125   1 H        0.980     0.004     2.984     2.699
   126   1 H        0.980     0.009     2.905     2.663
   127   1 H        0.980     0.002     3.022     2.716
   128   1 H        0.860     0.172     1.263     1.760
   129   1 H        0.860     0.186     1.182     1.703
   130   1 H        0.927     0.063     2.162     2.299
   131   1 H        0.927     0.066     2.129     2.282
   132   1 H        0.926     0.066     2.134     2.284
   133   1 H        0.927     0.066     2.130     2.282
   134   1 H        0.861     0.234     0.948     1.525
   135   1 H        0.927     0.123     1.586     1.969
   136   1 H        0.926     0.129     1.540     1.941
   137   1 H        0.929     0.084     1.935     2.175
   138   1 H        0.860     0.185     1.185     1.705
   139   1 H        0.860     0.172     1.258     1.757
   140   1 H        0.926     0.082     1.955     2.187
   141   1 H        0.927     0.072     2.059     2.244
   142   1 H        0.927     0.079     1.993     2.208
   143   1 H        0.929     0.072     2.058     2.243
   144   1 H        1.859     0.422     0.436     1.030
   145   1 H        0.929     0.163     1.309     1.789
   146   1 H        0.929     0.101     1.777     2.085
   147   1 H        0.929     0.111     1.684     2.029
   148   1 H        0.929     0.097     1.812     2.105
   149   1 H        0.927     0.103     1.758     2.073
   150   1 H        1.900     0.251     0.867     1.454
   151   1 H        0.927     0.086     1.922     2.168
   152   1 H        0.927     0.084     1.934     2.174
   153   1 H        0.927     0.082     1.961     2.190
   154   1 H        0.927     0.079     1.990     2.206
   155   1 H        0.927     0.069     2.095     2.264
   156   1 H        0.927     0.081     1.963     2.191
   157   1 H        0.860     0.191     1.152     1.682
   158   1 H        0.860     0.172     1.263     1.760
   159   1 H        0.927     0.078     1.995     2.208
   160   1 H        0.927     0.046     2.365     2.405
   161   1 H        0.927     0.054     2.267     2.355
   162   1 H        0.927     0.044     2.398     2.422
   163   1 H        0.927     0.057     2.235     2.338
   164   1 H        0.927     0.055     2.257     2.349
   165   1 H        0.927     0.055     2.255     2.348
   166   1 H        0.927     0.048     2.345     2.394
   167   1 H        0.861     0.210     1.054     1.608
   168   1 H        0.927     0.084     1.943     2.180
   169   1 H        0.927     0.069     2.092     2.262
   170   1 H        0.927     0.072     2.065     2.247
   171   1 H        0.929     0.045     2.380     2.413
   172   1 H        0.929     0.045     2.377     2.411
   173   1 H        0.929     0.051     2.303     2.373
   174   1 H        0.929     0.047     2.353     2.399
   175   1 H        0.929     0.047     2.354     2.399
   176   1 H        0.861     0.213     1.044     1.600
   177   1 H        0.927     0.096     1.825     2.112
   178   1 H        0.926     0.057     2.233     2.337
   179   1 H        0.927     0.043     2.406     2.426
   180   1 H        0.927     0.054     2.273     2.358
   181   1 H        0.927     0.058     2.222     2.331
   182   1 H        0.927     0.051     2.309     2.376
   183   1 H        0.926     0.060     2.196     2.318
   184   1 H        0.927     0.041     2.436     2.441
   185   1 H        0.927     0.046     2.370     2.407
   186   1 H        0.926     0.046     2.370     2.407
   187   1 H        0.861     0.214     1.038     1.596
   188   1 H        0.927     0.100     1.789     2.092
   189   1 H        0.926     0.112     1.679     2.026
   190   1 H        0.927     0.111     1.686     2.030
   191   1 H        0.929     0.103     1.758     2.073
   192   1 H        0.861     0.240     0.922     1.504
   193   1 H        0.927     0.112     1.682     2.028
   194   1 H        0.926     0.103     1.758     2.073
   195   1 H        0.926     0.101     1.779     2.086
   196   1 H        0.861     0.249     0.886     1.474
   197   1 H        0.861     0.235     0.945     1.523
   198   1 H        0.861     0.230     0.965     1.539
   199   1 H        0.927     0.119     1.619     1.990
   200   1 H        0.927     0.122     1.596     1.976
   201   1 H        0.927     0.106     1.728     2.055
   202   1 H        0.929     0.102     1.766     2.078
   203   1 H        0.861     0.228     0.975     1.547
   204   1 H        0.927     0.088     1.894     2.152
   205   1 H        0.927     0.067     2.124     2.279
   206   1 H        0.927     0.087     1.910     2.161
   207   1 H        0.927     0.070     2.086     2.258
   208   1 H        0.927     0.088     1.902     2.157
   209   1 H        0.927     0.085     1.930     2.173
   210   1 H        0.927     0.079     1.992     2.207
   211   1 H        0.927     0.119     1.622     1.992
   212   1 H        0.927     0.120     1.614     1.987
   213   1 H        0.861     0.224     0.989     1.558
   214   1 H        0.927     0.089     1.888     2.149
   215   1 H        0.929     0.082     1.963     2.191
   216   1 H        0.926     0.086     1.920     2.167
   217   1 H        0.927     0.086     1.919     2.166
   218   1 H        0.927     0.066     2.132     2.283
   219   1 H        0.927     0.067     2.113     2.273
   220   1 H        0.927     0.092     1.855     2.130
   221   1 H        0.927     0.092     1.855     2.130
   222   1 H        0.861     0.245     0.902     1.487
   223   1 H        0.861     0.255     0.864     1.456
   224   1 H        0.861     0.248     0.890     1.478
   225   1 H        0.861     0.259     0.851     1.445
   226   1 H        0.860     0.194     1.135     1.669
   227   1 H        0.860     0.188     1.168     1.693
   228   1 H        0.927     0.114     1.666     2.019
   229   1 H        1.871     0.261     0.829     1.421
   230   1 H        0.927     0.076     2.021     2.223
   231   1 H        0.927     0.087     1.908     2.160
   232   1 H        0.804     0.342     0.608     1.224
   233   1 H        2.092     0.178     1.210     1.717
   234   1 H        0.980     0.024     2.660     2.549
   235   1 H        0.980    -0.007     3.174     2.784
   236   1 H        0.980    -0.008     3.189     2.790
   237   1 H        0.980     0.006     2.944     2.681
   238   1 H        0.980     0.015     2.806     2.618
   239   1 H        0.980    -0.003     3.095     2.749
   240   1 H        0.980     0.009     2.898     2.660
   241   1 H        0.980     0.004     2.979     2.697
   242   1 H        2.080     0.188     1.154     1.677
   243   1 H        0.980     0.020     2.728     2.581
   244   1 H        0.980    -0.007     3.175     2.784
   245   1 H        0.980     0.012     2.847     2.636
   246   1 H        0.980    -0.011     3.246     2.815
   247   1 H        0.980     0.003     2.996     2.705
   248   1 H        0.980    -0.009     3.217     2.803
   249   1 H        0.980    -0.002     3.090     2.747
   250   1 H        0.860     0.289     0.748     1.355
   251   1 H        0.860     0.301     0.711     1.320
   252   1 H        0.860     0.293     0.734     1.342
   253   1 H        0.860     0.230     0.965     1.539
   254   1 H        0.858     0.241     0.918     1.501

 Mol. C6AA /au·bohr⁶  :     537349.789763
 Mol. C8AA /au·bohr⁸  :   11710052.026525
 Mol. α(0) /au        :       1111.095549


Wiberg/Mayer (AO) data.
largest (>0.10) Wiberg bond orders for each atom

 ---------------------------------------------------------------------------
     #   Z sym  total        # sym  WBO       # sym  WBO       # sym  WBO
 ---------------------------------------------------------------------------
     1   7 N    2.964 --     2 C    1.007   128 H    0.955   129 H    0.947
     2   6 C    3.959 --     1 N    1.007     5 C    0.990     3 C    0.948
                           130 H    0.935
     3   6 C    3.946 --     4 O    1.635     6 N    1.294     2 C    0.948
     4   8 O    1.993 --     3 C    1.635     6 N    0.190
     5   6 C    3.982 --     2 C    0.990   131 H    0.982   132 H    0.977
                           133 H    0.977
     6   7 N    3.456 --     3 C    1.294     7 C    0.994   134 H    0.914
                             4 O    0.190
     7   6 C    3.965 --     8 C    1.015     6 N    0.994   135 H    0.930
                           136 H    0.925
     8   6 C    3.898 --     9 O    1.869     7 C    1.015   137 H    0.947
     9   8 O    2.046 --     8 C    1.869
    10   7 N    3.034 --    11 C    1.031   139 H    0.953   138 H    0.951
    11   6 C    3.952 --    10 N    1.031   140 H    0.949    12 C    0.936
                            14 C    0.919
    12   6 C    3.943 --    13 O    1.663    24 N    1.251    11 C    0.936
    13   8 O    1.995 --    12 C    1.663    24 N    0.183
    14   6 C    3.965 --    15 C    1.029   142 H    0.969   141 H    0.952
                            11 C    0.919
    15   6 C    3.759 --    16 C    1.380    17 C    1.157    14 C    1.029
    16   6 C    3.944 --    18 N    1.418    15 C    1.380   143 H    0.969
    17   6 C    3.909 --    19 C    1.191    15 C    1.157    20 C    1.027
                           144 H    0.304
    18   7 N    2.787 --    16 C    1.418    19 C    1.226
    19   6 C    3.944 --    21 C    1.349    18 N    1.226    17 C    1.191
    20   6 C    3.856 --    22 C    1.431    17 C    1.027   145 H    0.839
                           144 H    0.394
    21   6 C    3.937 --    23 C    1.447    19 C    1.349   146 H    0.962
    22   6 C    3.974 --    20 C    1.431    23 C    1.389   147 H    0.962
    23   6 C    3.909 --    21 C    1.447    22 C    1.389   148 H    0.965
    24   7 N    3.498 --    12 C    1.251    30 C    0.971    25 C    0.956
                            13 O    0.183
    25   6 C    3.927 --    26 C    0.974    28 C    0.969    24 N    0.956
                           149 H    0.940
    26   6 C    3.730 --    27 O    1.904    25 C    0.974   150 H    0.638
                           111 H    0.114
    27   8 O    2.035 --    26 C    1.904
    28   6 C    3.972 --    29 C    1.002   151 H    0.973   152 H    0.972
                            25 C    0.969
    29   6 C    3.986 --    30 C    1.004    28 C    1.002   154 H    0.977
                           153 H    0.975
    30   6 C    3.956 --    29 C    1.004    24 N    0.971   155 H    0.960
                           156 H    0.957
    31   7 N    2.967 --    32 C    1.020   158 H    0.946   157 H    0.932
    32   6 C    3.957 --    31 N    1.020   159 H    0.958    33 C    0.944
                            35 C    0.934
    33   6 C    3.942 --    34 O    1.642    38 N    1.280    32 C    0.944
    34   8 O    1.973 --    33 C    1.642    38 N    0.193
    35   6 C    3.959 --    36 C    1.006    37 C    0.998   160 H    0.971
                            32 C    0.934
    36   6 C    3.987 --    35 C    1.006   161 H    0.986   162 H    0.983
                           163 H    0.982
    37   6 C    3.986 --    35 C    0.998   164 H    0.986   165 H    0.983
                           166 H    0.975
    38   7 N    3.449 --    33 C    1.280    39 C    0.972   167 H    0.918
                            34 O    0.193
    39   6 C    3.963 --    38 N    0.972    42 C    0.960   168 H    0.950
                            40 C    0.944
    40   6 C    3.950 --    41 O    1.612    49 N    1.314    39 C    0.944
    41   8 O    1.977 --    40 C    1.612    49 N    0.191
    42   6 C    3.988 --    43 C    1.014   170 H    0.969   169 H    0.964
                            39 C    0.960
    43   6 C    3.988 --    44 C    1.416    45 C    1.409    42 C    1.014
                            48 C    0.108
    44   6 C    3.992 --    46 C    1.432    43 C    1.416   171 H    0.966
                            47 C    0.115
    45   6 C    3.991 --    47 C    1.447    43 C    1.409   172 H    0.969
                            46 C    0.106
    46   6 C    3.994 --    48 C    1.461    44 C    1.432   173 H    0.969
                            45 C    0.106
    47   6 C    3.991 --    45 C    1.447    48 C    1.424   174 H    0.968
                            44 C    0.115
    48   6 C    3.994 --    46 C    1.461    47 C    1.424   175 H    0.970
                            43 C    0.108
    49   7 N    3.470 --    40 C    1.314    50 C    0.958   176 H    0.922
                            41 O    0.191
    50   6 C    3.954 --    53 C    0.977    49 N    0.958   177 H    0.952
                            51 C    0.934
    51   6 C    3.948 --    52 O    1.610    57 N    1.322    50 C    0.934
    52   8 O    1.938 --    51 C    1.610    57 N    0.196
    53   6 C    3.987 --    55 C    1.009    54 C    0.981    50 C    0.977
                           178 H    0.964
    54   6 C    3.995 --    56 C    1.027    53 C    0.981   180 H    0.977
                           179 H    0.974
    55   6 C    3.992 --    53 C    1.009   181 H    0.984   183 H    0.981
                           182 H    0.980
    56   6 C    3.994 --    54 C    1.027   184 H    0.986   186 H    0.983
                           185 H    0.983
    57   7 N    3.480 --    51 C    1.322    58 C    0.964   187 H    0.924
                            52 O    0.196
    58   6 C    3.961 --    61 C    0.974    57 N    0.964   188 H    0.954
                            59 C    0.928
    59   6 C    3.949 --    60 O    1.608    67 N    1.333    58 C    0.928
    60   8 O    1.916 --    59 C    1.608    67 N    0.185
    61   6 C    3.984 --    62 C    1.023    58 C    0.974   189 H    0.946
                           190 H    0.942
    62   6 C    3.907 --    64 C    1.506    63 N    1.162    61 C    1.023
                            65 C    0.139
    63   7 N    3.019 --    65 C    1.644    62 C    1.162    66 N    0.122
    64   6 C    3.903 --    62 C    1.506    66 N    1.202   191 H    0.963
                            65 C    0.147
    65   6 C    3.705 --    66 N    1.702    63 N    1.644    64 C    0.147
                            62 C    0.139
    66   7 N    3.100 --    65 C    1.702    64 C    1.202    63 N    0.122
    67   7 N    3.494 --    59 C    1.333    68 C    1.001   192 H    0.894
                            60 O    0.185
    68   6 C    3.931 --    67 N    1.001    71 C    0.989   193 H    0.927
                            69 C    0.898
    69   6 C    3.936 --    70 O    1.620    75 N    1.337    68 C    0.898
    70   8 O    1.943 --    69 C    1.620    75 N    0.192
    71   6 C    3.947 --    68 C    0.989   195 H    0.958   194 H    0.952
                            72 C    0.921
    72   6 C    3.933 --    73 O    1.615    74 N    1.374    71 C    0.921
    73   8 O    1.906 --    72 C    1.615    74 N    0.195
    74   7 N    3.432 --    72 C    1.374   197 H    0.919   196 H    0.898
                            73 O    0.195
    75   7 N    3.477 --    69 C    1.337    76 C    0.955   198 H    0.906
                            70 O    0.192
    76   6 C    3.949 --    79 C    0.968    75 N    0.955   199 H    0.942
                            77 C    0.936
    77   6 C    3.956 --    78 O    1.625    85 N    1.323    76 C    0.936
    78   8 O    1.946 --    77 C    1.625    85 N    0.199
    79   6 C    3.978 --    80 C    1.024    76 C    0.968   201 H    0.946
                           200 H    0.939
    80   6 C    3.907 --    82 C    1.558    81 N    1.147    79 C    1.024
                            83 C    0.113
    81   7 N    3.570 --    83 C    1.352    80 C    1.147   254 H    0.877
    82   6 C    3.893 --    80 C    1.558    84 N    1.198   202 H    0.963
    83   6 C    3.428 --    84 N    1.763    81 N    1.352    80 C    0.113
    84   7 N    3.145 --    83 C    1.763    82 C    1.198
    85   7 N    3.484 --    77 C    1.323    86 C    0.972   203 H    0.904
                            78 O    0.199
    86   6 C    3.962 --    89 C    0.985    85 N    0.972   204 H    0.945
                            87 C    0.943
    87   6 C    3.948 --    88 O    1.622    94 N    1.303    86 C    0.943
    88   8 O    1.934 --    87 C    1.622    94 N    0.194
    89   6 C    3.986 --    90 C    1.007    86 C    0.985   205 H    0.968
                           206 H    0.964
    90   6 C    3.990 --    89 C    1.007    91 C    1.000   208 H    0.971
                           207 H    0.936
    91   6 C    3.984 --    92 C    1.012    90 C    1.000   210 H    0.974
                           209 H    0.968
    92   6 C    3.904 --    91 C    1.012   211 H    0.969   212 H    0.967
                            93 N    0.938
    93   7 N    3.644 --    92 C    0.938   250 H    0.905   251 H    0.898
                           252 H    0.849
    94   7 N    3.484 --    87 C    1.303    95 C    0.975   213 H    0.917
                            88 O    0.194
    95   6 C    3.965 --    96 C    0.977    94 N    0.975    98 C    0.960
                           214 H    0.959
    96   6 C    3.898 --    97 O    1.908    95 C    0.977   215 H    0.950
    97   8 O    2.041 --    96 C    1.908
    98   6 C    3.982 --    99 C    1.006   216 H    0.970   217 H    0.968
                            95 C    0.960
    99   6 C    3.990 --    98 C    1.006   100 C    1.002   219 H    0.972
                           218 H    0.972
   100   6 C    3.953 --    99 C    1.002   101 N    0.982   220 H    0.960
                           221 H    0.959
   101   7 N    3.471 --   102 C    1.318   100 C    0.982   253 H    0.914
                           104 N    0.104
   102   6 C    3.977 --   104 N    1.321   101 N    1.318   103 N    1.307
   103   7 N    3.384 --   102 C    1.307   223 H    0.918   222 H    0.915
   104   7 N    3.394 --   102 C    1.321   224 H    0.919   225 H    0.914
                           101 N    0.104
   105   7 N    3.013 --   106 C    1.032   226 H    0.948   227 H    0.942
   106   6 C    3.924 --   105 N    1.032   107 C    0.971   109 C    0.938
                           228 H    0.902
   107   6 C    3.706 --   108 O    1.896   106 C    0.971   229 H    0.627
   108   8 O    2.050 --   107 C    1.896
   109   6 C    3.949 --   110 O    1.017   231 H    0.958   230 H    0.958
                           106 C    0.938
   110   8 O    1.949 --   109 C    1.017   232 H    0.868
   111   1 H    0.881 --   233 H    0.707    26 C    0.114
   112   1 H    0.999 --   234 H    0.990
   113   1 H    0.999 --   235 H    0.990
   114   1 H    0.999 --   236 H    0.916
   115   1 H    1.000 --   237 H    0.962
   116   1 H    1.000 --   238 H    0.945
   117   1 H    0.999 --   239 H    0.886
   118   1 H    0.999 --   240 H    0.947
   119   1 H    1.000 --   241 H    0.929
   120   1 H    0.852 --   242 H    0.698
   121   1 H    1.000 --   243 H    0.983
   122   1 H    0.999 --   244 H    0.974
   123   1 H    0.999 --   245 H    0.943
   124   1 H    0.999 --   246 H    0.962
   125   1 H    0.999 --   247 H    0.971
   126   1 H    1.000 --   248 H    0.987
   127   1 H    1.000 --   249 H    0.998
   128   1 H    0.969 --     1 N    0.955
   129   1 H    0.960 --     1 N    0.947
   130   1 H    0.974 --     2 C    0.935
   131   1 H    0.992 --     5 C    0.982
   132   1 H    0.992 --     5 C    0.977
   133   1 H    0.996 --     5 C    0.977
   134   1 H    0.945 --     6 N    0.914
   135   1 H    0.985 --     7 C    0.930
   136   1 H    0.983 --     7 C    0.925
   137   1 H    0.993 --     8 C    0.947
   138   1 H    0.963 --    10 N    0.951
   139   1 H    0.969 --    10 N    0.953
   140   1 H    0.992 --    11 C    0.949
   141   1 H    0.987 --    14 C    0.952
   142   1 H    0.992 --    14 C    0.969
   143   1 H    0.993 --    16 C    0.969
   144   1 H    0.821 --    20 C    0.394    17 C    0.304
   145   1 H    0.971 --    20 C    0.839
   146   1 H    0.988 --    21 C    0.962
   147   1 H    0.987 --    22 C    0.962
   148   1 H    0.990 --    23 C    0.965
   149   1 H    0.988 --    25 C    0.940
   150   1 H    0.899 --    26 C    0.638   233 H    0.209
   151   1 H    0.990 --    28 C    0.973
   152   1 H    0.991 --    28 C    0.972
   153   1 H    0.993 --    29 C    0.975
   154   1 H    0.993 --    29 C    0.977
   155   1 H    0.993 --    30 C    0.960
   156   1 H    0.991 --    30 C    0.957
   157   1 H    0.960 --    31 N    0.932
   158   1 H    0.968 --    31 N    0.946
   159   1 H    0.992 --    32 C    0.958
   160   1 H    0.998 --    35 C    0.971
   161   1 H    0.997 --    36 C    0.986
   162   1 H    0.997 --    36 C    0.983
   163   1 H    0.992 --    36 C    0.982
   164   1 H    0.997 --    37 C    0.986
   165   1 H    0.994 --    37 C    0.983
   166   1 H    0.998 --    37 C    0.975
   167   1 H    0.955 --    38 N    0.918
   168   1 H    0.993 --    39 C    0.950
   169   1 H    0.995 --    42 C    0.964
   170   1 H    0.994 --    42 C    0.969
   171   1 H    0.998 --    44 C    0.966
   172   1 H    0.998 --    45 C    0.969
   173   1 H    0.997 --    46 C    0.969
   174   1 H    0.997 --    47 C    0.968
   175   1 H    0.998 --    48 C    0.970
   176   1 H    0.955 --    49 N    0.922
   177   1 H    0.990 --    50 C    0.952
   178   1 H    0.997 --    53 C    0.964
   179   1 H    0.998 --    54 C    0.974
   180   1 H    0.997 --    54 C    0.977
   181   1 H    0.997 --    55 C    0.984
   182   1 H    0.997 --    55 C    0.980
   183   1 H    0.996 --    55 C    0.981
   184   1 H    0.998 --    56 C    0.986
   185   1 H    0.997 --    56 C    0.983
   186   1 H    0.998 --    56 C    0.983
   187   1 H    0.954 --    57 N    0.924
   188   1 H    0.990 --    58 C    0.954
   189   1 H    0.986 --    61 C    0.946
   190   1 H    0.986 --    61 C    0.942
   191   1 H    0.989 --    64 C    0.963
   192   1 H    0.942 --    67 N    0.894
   193   1 H    0.979 --    68 C    0.927
   194   1 H    0.988 --    71 C    0.952
   195   1 H    0.987 --    71 C    0.958
   196   1 H    0.938 --    74 N    0.898
   197   1 H    0.942 --    74 N    0.919
   198   1 H    0.947 --    75 N    0.906
   199   1 H    0.985 --    76 C    0.942
   200   1 H    0.979 --    79 C    0.939
   201   1 H    0.985 --    79 C    0.946
   202   1 H    0.989 --    82 C    0.963
   203   1 H    0.948 --    85 N    0.904
   204   1 H    0.990 --    86 C    0.945
   205   1 H    0.995 --    89 C    0.968
   206   1 H    0.992 --    89 C    0.964
   207   1 H    0.995 --    90 C    0.936
   208   1 H    0.992 --    90 C    0.971
   209   1 H    0.993 --    91 C    0.968
   210   1 H    0.994 --    91 C    0.974
   211   1 H    0.986 --    92 C    0.969
   212   1 H    0.985 --    92 C    0.967
   213   1 H    0.950 --    94 N    0.917
   214   1 H    0.992 --    95 C    0.959
   215   1 H    0.993 --    96 C    0.950
   216   1 H    0.993 --    98 C    0.970
   217   1 H    0.993 --    98 C    0.968
   218   1 H    0.996 --    99 C    0.972
   219   1 H    0.995 --    99 C    0.972
   220   1 H    0.991 --   100 C    0.960
   221   1 H    0.991 --   100 C    0.959
   222   1 H    0.940 --   103 N    0.915
   223   1 H    0.935 --   103 N    0.918
   224   1 H    0.938 --   104 N    0.919
   225   1 H    0.933 --   104 N    0.914
   226   1 H    0.962 --   105 N    0.948
   227   1 H    0.956 --   105 N    0.942
   228   1 H    0.972 --   106 C    0.902
   229   1 H    0.881 --   107 C    0.627   242 H    0.199
   230   1 H    0.990 --   109 C    0.958
   231   1 H    0.992 --   109 C    0.958
   232   1 H    0.883 --   110 O    0.868
   233   1 H    0.944 --   111 H    0.707   150 H    0.209
   234   1 H    0.999 --   112 H    0.990
   235   1 H    0.999 --   113 H    0.990
   236   1 H    1.000 --   114 H    0.916
   237   1 H    1.000 --   115 H    0.962
   238   1 H    1.000 --   116 H    0.945
   239   1 H    0.999 --   117 H    0.886
   240   1 H    1.000 --   118 H    0.947
   241   1 H    0.999 --   119 H    0.929
   242   1 H    0.929 --   120 H    0.698   229 H    0.199
   243   1 H    0.999 --   121 H    0.983
   244   1 H    0.999 --   122 H    0.974
   245   1 H    0.999 --   123 H    0.943
   246   1 H    0.998 --   124 H    0.962
   247   1 H    0.998 --   125 H    0.971
   248   1 H    1.000 --   126 H    0.987
   249   1 H    1.000 --   127 H    0.998
   250   1 H    0.917 --    93 N    0.905
   251   1 H    0.909 --    93 N    0.898
   252   1 H    0.914 --    93 N    0.849
   253   1 H    0.947 --   101 N    0.914
   254   1 H    0.942 --    81 N    0.877
 ---------------------------------------------------------------------------

Topologies differ in total number of bonds
Writing topology from bond orders to xtbtopo.mol

molecular dipole:
                 x           y           z       tot (Debye)
 q only:     -134.589      66.980      71.896
   full:     -134.833      69.364      71.171     425.745
molecular quadrupole (traceless):
                xx          xy          yy          xz          yz          zz
 q only:     3021.074   -2568.163   -1363.925   -3041.206    1238.567   -1657.149
  q+dip:     3014.228   -2659.360   -1279.798   -3005.133    1274.322   -1734.431
   full:     3011.929   -2661.004   -1278.268   -3005.853    1274.959   -1733.661


           -------------------------------------------------
          | TOTAL ENERGY             -351.740569309638 Eh   |
          | GRADIENT NORM               1.346714188568 Eh/α |
          | HOMO-LUMO GAP               0.020957194611 eV   |
           -------------------------------------------------
########################################################################
[WARNING] Runtime exception occurred
-2- restart_readRestart: Dimension missmatch in restart file.
-1- restart_readRestart: Number of electron missmatch in restart file.
########################################################################

------------------------------------------------------------------------
 * finished run on 2025/05/05 at 16:52:42.903     
------------------------------------------------------------------------
 total:
 * wall-time:     0 d,  0 h,  0 min,  2.065 sec
 *  cpu-time:     0 d,  0 h,  1 min,  2.674 sec
 * ratio c/w:    30.348 speedup
 SCF:
 * wall-time:     0 d,  0 h,  0 min,  2.038 sec
 *  cpu-time:     0 d,  0 h,  1 min,  1.935 sec
 * ratio c/w:    30.395 speedup

