      -----------------------------------------------------------      
     |                   =====================                   |     
     |                           x T B                           |     
     |                   =====================                   |     
     |                         S. Grimme                         |     
     |          Mulliken Center for Theoretical Chemistry        |     
     |                    University of Bonn                     |     
      -----------------------------------------------------------      

   * xtb version 6.7.1 (edcfbbe) compiled by 'conda@afd1a870197c' on 2025-04-11

   xtb is free software: you can redistribute it and/or modify it under
   the terms of the GNU Lesser General Public License as published by
   the Free Software Foundation, either version 3 of the License, or
   (at your option) any later version.
   
   xtb is distributed in the hope that it will be useful,
   but WITHOUT ANY WARRANTY; without even the implied warranty of
   MERCHANTABILITY or FITNESS FOR A PARTICULAR PURPOSE.  See the
   GNU Lesser General Public License for more details.
   
   Cite this work as:
   * C. Bannwarth, E. Caldeweyher, S. Ehlert, A. Hansen, P. Pracht,
     J. Seibert, S. Spicher, S. Grimme, WIREs Comput. Mol. Sci., 2020, 11,
     e01493. DOI: 10.1002/wcms.1493
   
   for GFN2-xTB:
   * C. Bannwarth, S. Ehlert and S. Grimme., J. Chem. Theory Comput., 2019,
     15, 1652-1671. DOI: 10.1021/acs.jctc.8b01176
   for GFN1-xTB:
   * S. Grimme, C. Bannwarth, P. Shushkov, J. Chem. Theory Comput., 2017,
     13, 1989-2009. DOI: 10.1021/acs.jctc.7b00118
   for GFN0-xTB:
   * P. Pracht, E. Caldeweyher, S. Ehlert, S. Grimme, ChemRxiv, 2019, preprint.
     DOI: 10.26434/chemrxiv.8326202.v1
   for GFN-FF:
   * S. Spicher and S. Grimme, Angew. Chem. Int. Ed., 2020, 59, 15665-15673.
     DOI: 10.1002/anie.202004239
   
   for ALPB and GBSA implicit solvation:
   * S. Ehlert, M. Stahn, S. Spicher, S. Grimme, J. Chem. Theory Comput.,
     2021, 17, 4250-4261. DOI: 10.1021/acs.jctc.1c00471
   
   for ddCOSMO and CPCM-X implicit solvation:
   * M. Stahn, S. Ehlert, S. Grimme, J. Phys. Chem. A,
     2023, XX, XXXX-XXXX. DOI: 10.1021/acs.jpca.3c04382
   
   for DFT-D4:
   * E. Caldeweyher, C. Bannwarth and S. Grimme, J. Chem. Phys., 2017,
     147, 034112. DOI: 10.1063/1.4993215
   * E. Caldeweyher, S. Ehlert, A. Hansen, H. Neugebauer, S. Spicher,
     C. Bannwarth and S. Grimme, J. Chem. Phys., 2019, 150, 154122.
     DOI: 10.1063/1.5090222
   * E. Caldeweyher, J.-M. Mewes, S. Ehlert and S. Grimme, Phys. Chem. Chem. Phys.
     2020, 22, 8499-8512. DOI: 10.1039/D0CP00502A
   
   for sTDA-xTB:
   * S. Grimme and C. Bannwarth, J. Chem. Phys., 2016, 145, 054103.
     DOI: 10.1063/1.4959605
   
   in the mass-spec context:
   * V. Asgeirsson, C. Bauer and S. Grimme, Chem. Sci., 2017, 8, 4879.
     DOI: 10.1039/c7sc00601b
   * J. Koopman and S. Grimme, ACS Omega 2019, 4, 12, 15120-15133.
     DOI: 10.1021/acsomega.9b02011
   
   for metadynamics refer to:
   * S. Grimme, J. Chem. Theory Comput., 2019, 155, 2847-2862
     DOI: 10.1021/acs.jctc.9b00143
   
   for SPH calculations refer to:
   * S. Spicher and S. Grimme, J. Chem. Theory Comput., 2021, 17, 1701-1714
     DOI: 10.1021/acs.jctc.0c01306
   
   for ONIOM refer to:
   * C. Plett, A. Katbashev, S. Ehlert, S. Grimme, M. Bursch,
     Phys. Chem. Chem. Phys., 2023, 25, 17860-17868. DOI: 10.1039/D3CP02178E
   
   for DIPRO refer to:
   * J. Kohn, N. Gildemeister, S. Grimme, D. Fazzi, A. Hansen,
     J. Chem. Phys., 2023, just accepted.
   
   for PTB refer to:
   * S. Grimme, M. Mueller, A. Hansen, J. Chem. Phys., 2023, 158, 124111.
     DOI: 10.1063/5.0137838
   
   with help from (in alphabetical order)
   P. Atkinson, C. Bannwarth, F. Bohle, G. Brandenburg, E. Caldeweyher
   M. Checinski, S. Dohm, S. Ehlert, S. Ehrlich, I. Gerasimov, C. Hölzer
   A. Katbashev, J. Kohn, J. Koopman, C. Lavigne, S. Lehtola, F. März, M. Müller,
   F. Musil, H. Neugebauer, J. Pisarek, C. Plett, P. Pracht, F. Pultar,
   J. Seibert, P. Shushkov, S. Spicher, M. Stahn, M. Steiner, T. Strunk,
   J. Stückrath, T. Rose, and J. Unsleber
   
 * started run on 2025/05/05 at 17:06:02.230     
   ID    Z sym.   atoms
    1    7 N      1, 8, 20, 28, 33, 42, 48, 51
    2    6 C      2, 3, 5-7, 9, 10, 12-18, 21, 22, 24-27, 29, 30, 32, 34, 35,
                  37-39, 43, 44, 46, 47, 49, 50
    3    8 O      4, 11, 19, 23, 31, 36, 40, 41, 45
    4    1 H      52-99

           -------------------------------------------------
          |                Calculation Setup                |
           -------------------------------------------------

          program call               : xtb /tmp/tmpoplj590k/HIE/input.xyz --alpb ether --chrg -2 --input /tmp/tmpoplj590k/HIE/constraints.inp --gfn 2
          hostname                   : fedora
          coordinate file            : /tmp/tmpoplj590k/HIE/input.xyz
          omp threads                :                    32


molecular fragmentation (1/2 indicates fragments):
111111122222222222222222222222222222222222222222222111111111222222222222
222222222222222222222222222
# atoms in fragment 1/2:    16    83
 fragment masses (1/2) :       99.13      613.66
CMA distance (Bohr)    :  15.550
constraining FC (au)   :  0.0500
########################################################################
[WARNING] Please study the warnings concerning your input carefully
-1- readin_getIntValue: could not parse 'S'
########################################################################

           -------------------------------------------------
          |                 G F N 2 - x T B                 |
           -------------------------------------------------

        Reference                      10.1021/acs.jctc.8b01176
      * Hamiltonian:
        H0-scaling (s, p, d)           1.850000    2.230000    2.230000
        zeta-weighting                 0.500000
      * Dispersion:
        s8                             2.700000
        a1                             0.520000
        a2                             5.000000
        s9                             5.000000
      * Repulsion:
        kExp                           1.500000    1.000000
        rExp                           1.000000
      * Coulomb:
        alpha                          2.000000
        third order                    shell-resolved
        anisotropic                    true
        a3                             3.000000
        a5                             4.000000
        cn-shift                       1.200000
        cn-exp                         4.000000
        max-rad                        5.000000

      * Solvation model:               ALPB
        Solvent                        ether
        Parameter file                 internal GFN2-xTB/ALPB
        Dielectric constant                4.3300E+00
        Reference state                gsolv [1 M gas/solution]
        Free energy shift                  4.9534E-03 Eh       3.1083E+00 kcal/mol
        Temperature                        2.9815E+02 K
        Density                            7.1300E-01 kg/L
        Solvent mass                       7.4120E+01 g/mol
        Interaction kernel             P16
        Born radius scaling (c1)           1.5847E+00
        Born radii integrator          GBOBC
        Born offset                        0.0000E+00 a0       0.0000E+00 AA
        H-bond correction              true
        Ion screening                  false
        Surface tension                    1.0000E-05 Eh       1.5569E+01 dyn/cm
        Grid points                               230 per atom

          ...................................................
          :                      SETUP                      :
          :.................................................:
          :  # basis functions                 252          :
          :  # atomic orbitals                 252          :
          :  # shells                          150          :
          :  # electrons                       280          :
          :  max. iterations                   250          :
          :  Hamiltonian                  GFN2-xTB          :
          :  restarted?                      false          :
          :  GBSA solvation                   true          :
          :  PC potential                    false          :
          :  electronic temp.          300.0000000     K    :
          :  accuracy                    1.0000000          :
          :  -> integral cutoff          0.2500000E+02      :
          :  -> integral neglect         0.1000000E-07      :
          :  -> SCF convergence          0.1000000E-05 Eh   :
          :  -> wf. convergence          0.1000000E-03 e    :
          :  Broyden damping             0.4000000          :
          :  net charge                         -2          :
          :  unpaired electrons                  0          :
          ...................................................

 iter      E             dE          RMSdq      gap      omega  full diag
   1   -159.3576418 -0.159358E+03  0.437E+00    2.29       0.0  T
   2   -158.7278995  0.629742E+00  0.350E+00    0.19       1.0  T
   3   -159.6095740 -0.881674E+00  0.230E+00    1.02       1.0  T
   4   -159.8320875 -0.222514E+00  0.125E+00    1.38       1.0  T
   5   -159.8529730 -0.208855E-01  0.804E-01    0.92       1.0  T
   6   -159.8814112 -0.284382E-01  0.408E-01    0.13       1.0  T
   7   -159.8555088  0.259024E-01  0.500E-01    0.05       1.0  T
   8   -159.8728034 -0.172946E-01  0.453E-01    0.51       1.0  T
   9   -159.8921876 -0.193842E-01  0.115E-01    0.13       1.0  T
  10   -159.0037460  0.888442E+00  0.251E+00    0.18       1.0  T
  11   -159.8876621 -0.883916E+00  0.207E-01    0.16       1.0  T
  12   -159.8901659 -0.250381E-02  0.153E-01    0.09       1.0  T
  13   -159.8927762 -0.261036E-02  0.732E-02    0.12       1.0  T
  14   -159.8909428  0.183342E-02  0.136E-01    0.14       1.0  T
  15   -159.8926976 -0.175474E-02  0.762E-02    0.12       1.0  T
  16   -159.8930300 -0.332438E-03  0.586E-02    0.12       1.0  T
  17   -159.8934304 -0.400422E-03  0.240E-02    0.11       1.0  T
  18   -159.8935003 -0.698357E-04  0.887E-03    0.11       1.1  T
  19   -159.8935099 -0.966913E-05  0.308E-03    0.11       3.3  T
  20   -159.8935112 -0.124173E-05  0.743E-04    0.11      13.5  T
  21   -159.8935112 -0.758456E-07  0.872E-05    0.11     115.3  T
  22   -159.8935112  0.155813E-08  0.136E-04    0.11      73.9  T

   *** convergence criteria satisfied after 22 iterations ***

         #    Occupation            Energy/Eh            Energy/eV
      -------------------------------------------------------------
         1        2.0000           -0.6907515             -18.7963
       ...           ...                  ...                  ...
       134        2.0000           -0.3211118              -8.7379
       135        2.0000           -0.3134961              -8.5307
       136        2.0000           -0.3027995              -8.2396
       137        2.0000           -0.2926560              -7.9636
       138        2.0000           -0.2736347              -7.4460
       139        2.0000           -0.2625414              -7.1441
       140        1.7670           -0.2326601              -6.3310 (HOMO)
       141        0.2033           -0.2286654              -6.2223 (LUMO)
       142        0.0297           -0.2267499              -6.1702
       143                         -0.2012557              -5.4764
       144                         -0.1966554              -5.3513
       145                         -0.1925944              -5.2408
       ...                                ...                  ...
       252                          0.7414198              20.1751
      -------------------------------------------------------------
                  HL-Gap            0.0039948 Eh            0.1087 eV
             Fermi-level           -0.2307354 Eh           -6.2786 eV

 SCC (total)                   0 d,  0 h,  0 min,  0.424 sec
 SCC setup                      ...        0 min,  0.001 sec (  0.243%)
 Dispersion                     ...        0 min,  0.002 sec (  0.358%)
 classical contributions        ...        0 min,  0.000 sec (  0.034%)
 integral evaluation            ...        0 min,  0.004 sec (  0.866%)
 iterations                     ...        0 min,  0.403 sec ( 95.148%)
 molecular gradient             ...        0 min,  0.014 sec (  3.294%)
 printout                       ...        0 min,  0.000 sec (  0.052%)

         :::::::::::::::::::::::::::::::::::::::::::::::::::::
         ::                     SUMMARY                     ::
         :::::::::::::::::::::::::::::::::::::::::::::::::::::
         :: total energy            -157.800430276302 Eh    ::
         :: total w/o Gsasa/hb      -157.755147275299 Eh    ::
         :: gradient norm              0.247484295606 Eh/a0 ::
         :: HOMO-LUMO gap              0.108703067071 eV    ::
         ::.................................................::
         :: SCC energy              -159.887307502393 Eh    ::
         :: -> isotropic ES            0.698437182762 Eh    ::
         :: -> anisotropic ES          0.016553153553 Eh    ::
         :: -> anisotropic XC          0.048021880129 Eh    ::
         :: -> dispersion             -0.117312535630 Eh    ::
         :: -> Gsolv                  -0.259179496669 Eh    ::
         ::    -> Gelec               -0.213896495666 Eh    ::
         ::    -> Gsasa               -0.042648872840 Eh    ::
         ::    -> Ghb                 -0.007587565740 Eh    ::
         ::    -> Gshift               0.004953437577 Eh    ::
         :: repulsion energy           2.086877226091 Eh    ::
         :: add. restraining           0.000000000000 Eh    ::
         :: total charge              -2.000000000255 e     ::
         :::::::::::::::::::::::::::::::::::::::::::::::::::::

           -------------------------------------------------
          |                Property Printout                |
           -------------------------------------------------

    * Orbital Energies and Occupations

         #    Occupation            Energy/Eh            Energy/eV
      -------------------------------------------------------------
         1        2.0000           -0.6907515             -18.7963
       ...           ...                  ...                  ...
       128        2.0000           -0.3650322              -9.9330
       129        2.0000           -0.3594812              -9.7820
       130        2.0000           -0.3479709              -9.4688
       131        2.0000           -0.3439079              -9.3582
       132        2.0000           -0.3427021              -9.3254
       133        2.0000           -0.3231349              -8.7929
       134        2.0000           -0.3211118              -8.7379
       135        2.0000           -0.3134961              -8.5307
       136        2.0000           -0.3027995              -8.2396
       137        2.0000           -0.2926560              -7.9636
       138        2.0000           -0.2736347              -7.4460
       139        2.0000           -0.2625414              -7.1441
       140        1.7670           -0.2326601              -6.3310 (HOMO)
       141        0.2033           -0.2286654              -6.2223 (LUMO)
       142        0.0297           -0.2267499              -6.1702
       143                         -0.2012557              -5.4764
       144                         -0.1966554              -5.3513
       145                         -0.1925944              -5.2408
       146                         -0.1879607              -5.1147
       147                         -0.1726030              -4.6968
       148                         -0.1608275              -4.3763
       149                         -0.1003098              -2.7296
       150                         -0.0852249              -2.3191
       151                         -0.0671110              -1.8262
       ...                                ...                  ...
       252                          0.7414198              20.1751
      -------------------------------------------------------------
                  HL-Gap            0.0039948 Eh            0.1087 eV
             Fermi-level           -0.2307354 Eh           -6.2786 eV

     #   Z          covCN         q      C6AA      α(0)
     1   7 N        2.704    -0.278    27.170     7.742
     2   6 C        3.819     0.030    20.051     6.373
     3   6 C        2.766     0.166    24.410     8.091
     4   8 O        0.856    -0.444    22.585     6.372
     5   6 C        3.862    -0.046    21.363     6.573
     6   6 C        3.842    -0.050    21.439     6.587
     7   6 C        3.785     0.018    20.283     6.415
     8   7 N        2.632    -0.379    29.794     8.107
     9   6 C        3.791     0.029    20.090     6.383
    10   6 C        2.757     0.276    22.335     7.739
    11   8 O        0.861    -0.489    23.533     6.504
    12   6 C        3.824    -0.073    21.870     6.655
    13   6 C        2.971    -0.011    28.295     8.725
    14   6 C        2.928    -0.050    29.243     8.868
    15   6 C        2.934    -0.047    29.163     8.857
    16   6 C        2.917    -0.077    29.925     8.971
    17   6 C        2.920    -0.054    29.344     8.883
    18   6 C        2.849     0.145    24.832     8.167
    19   8 O        1.660    -0.448    21.794     6.302
    20   7 N        2.690    -0.187    25.062     7.435
    21   6 C        3.795     0.021    20.224     6.404
    22   6 C        2.755     0.274    22.370     7.745
    23   8 O        0.860    -0.489    23.535     6.504
    24   6 C        3.817    -0.076    21.943     6.667
    25   6 C        3.853    -0.013    20.773     6.482
    26   6 C        3.762    -0.122    22.875     6.818
    27   6 C        3.761    -0.110    22.649     6.784
    28   7 N        2.689    -0.181    24.930     7.416
    29   6 C        3.794     0.023    20.188     6.398
    30   6 C        2.748     0.282    22.229     7.720
    31   8 O        0.861    -0.474    23.220     6.461
    32   6 C        3.758    -0.129    23.027     6.841
    33   7 N        2.682    -0.189    25.099     7.441
    34   6 C        3.790     0.026    20.148     6.392
    35   6 C        2.771     0.278    22.292     7.733
    36   8 O        0.860    -0.505    23.888     6.553
    37   6 C        3.822    -0.053    21.501     6.599
    38   6 C        3.809    -0.088    22.167     6.702
    39   6 C        2.690     0.362    20.864     7.475
    40   8 O        0.857    -0.643    27.207     6.993
    41   8 O        0.857    -0.650    27.379     7.015
    42   7 N        2.690    -0.155    24.362     7.331
    43   6 C        3.796     0.040    19.906     6.353
    44   6 C        2.759     0.211    23.521     7.942
    45   8 O        0.856    -0.378    21.237     6.179
    46   6 C        3.810    -0.053    21.514     6.602
    47   6 C        3.088     0.018    27.518     8.599
    48   7 N        1.984    -0.427    32.095     8.402
    49   6 C        3.053    -0.043    29.019     8.835
    50   6 C        2.106    -0.158    35.343     9.606
    51   7 N        2.835    -0.137    23.953     7.269
    52   1 H        0.860     0.152     1.387     1.845
    53   1 H        0.927     0.039     2.456     2.451
    54   1 H        0.929     0.013     2.839     2.635
    55   1 H        0.927     0.034     2.534     2.489
    56   1 H        0.927     0.035     2.523     2.484
    57   1 H        0.927     0.046     2.368     2.406
    58   1 H        0.926     0.033     2.541     2.493
    59   1 H        0.926     0.014     2.832     2.632
    60   1 H        0.927     0.033     2.548     2.496
    61   1 H        0.860     0.170     1.272     1.767
    62   1 H        0.860     0.155     1.371     1.834
    63   1 H        0.927     0.055     2.262     2.352
    64   1 H        0.926     0.044     2.394     2.420
    65   1 H        0.927     0.053     2.283     2.363
    66   1 H        0.929     0.045     2.383     2.414
    67   1 H        0.929     0.041     2.439     2.442
    68   1 H        0.929     0.049     2.336     2.390
    69   1 H        0.929     0.053     2.287     2.365
    70   1 H        0.807     0.346     0.598     1.215
    71   1 H        0.861     0.203     1.092     1.637
    72   1 H        0.927     0.079     1.993     2.207
    73   1 H        0.927     0.064     2.157     2.296
    74   1 H        0.926     0.054     2.267     2.354
    75   1 H        0.927     0.032     2.551     2.498
    76   1 H        0.927     0.045     2.378     2.411
    77   1 H        0.927     0.043     2.405     2.425
    78   1 H        0.926     0.049     2.334     2.389
    79   1 H        0.926     0.039     2.461     2.453
    80   1 H        0.927     0.040     2.451     2.448
    81   1 H        0.927     0.037     2.484     2.465
    82   1 H        0.861     0.210     1.054     1.608
    83   1 H        0.927     0.084     1.937     2.176
    84   1 H        0.927     0.061     2.185     2.311
    85   1 H        0.927     0.071     2.070     2.250
    86   1 H        0.927     0.071     2.072     2.251
    87   1 H        0.861     0.192     1.149     1.679
    88   1 H        0.927     0.076     2.016     2.221
    89   1 H        0.927     0.069     2.091     2.261
    90   1 H        0.927     0.039     2.467     2.456
    91   1 H        0.927     0.033     2.548     2.496
    92   1 H        0.927     0.026     2.643     2.542
    93   1 H        0.861     0.203     1.091     1.636
    94   1 H        0.927     0.065     2.141     2.288
    95   1 H        0.929     0.061     2.191     2.314
    96   1 H        0.927     0.037     2.495     2.470
    97   1 H        0.927     0.045     2.378     2.411
    98   1 H        0.929    -0.046     4.005     3.129
    99   1 H        0.858     0.115     1.662     2.020

 Mol. C6AA /au·bohr⁶  :     101810.972264
 Mol. C8AA /au·bohr⁸  :    2299953.342368
 Mol. α(0) /au        :        481.606298


Wiberg/Mayer (AO) data.
largest (>0.10) Wiberg bond orders for each atom

 ---------------------------------------------------------------------------
     #   Z sym  total        # sym  WBO       # sym  WBO       # sym  WBO
 ---------------------------------------------------------------------------
     1   7 N    3.048 --     2 C    1.008     7 C    0.997    52 H    0.949
     2   6 C    3.989 --     1 N    1.008     3 C    0.987    53 H    0.956
                             5 C    0.951
     3   6 C    3.730 --     4 O    1.728     2 C    0.987    54 H    0.953
     4   8 O    1.873 --     3 C    1.728
     5   6 C    3.983 --     6 C    1.011    55 H    0.979    56 H    0.974
                             2 C    0.951
     6   6 C    3.995 --     5 C    1.011     7 C    1.007    57 H    0.977
                            58 H    0.973
     7   6 C    3.987 --     6 C    1.007     1 N    0.997    59 H    0.979
                            60 H    0.975
     8   7 N    2.995 --     9 C    1.013    61 H    0.956    62 H    0.952
     9   6 C    3.982 --     8 N    1.013    63 H    0.966    12 C    0.957
                            10 C    0.936
    10   6 C    3.942 --    11 O    1.659    20 N    1.282     9 C    0.936
    11   8 O    1.972 --    10 C    1.659    20 N    0.194
    12   6 C    3.997 --    13 C    1.012    64 H    0.971    65 H    0.968
                             9 C    0.957
    13   6 C    3.988 --    14 C    1.409    15 C    1.402    12 C    1.012
    14   6 C    3.992 --    16 C    1.451    13 C    1.409    66 H    0.972
                            17 C    0.106
    15   6 C    3.993 --    17 C    1.456    13 C    1.402    67 H    0.968
                            16 C    0.106
    16   6 C    3.988 --    14 C    1.451    18 C    1.369    68 H    0.971
                            15 C    0.106
    17   6 C    3.991 --    15 C    1.456    18 C    1.375    69 H    0.970
                            14 C    0.106
    18   6 C    3.933 --    17 C    1.375    16 C    1.369    19 O    1.058
    19   8 O    2.076 --    18 C    1.058    70 H    0.862
    20   7 N    3.446 --    10 C    1.282    21 C    0.967    71 H    0.918
                            11 O    0.194
    21   6 C    3.961 --    24 C    0.982    20 N    0.967    72 H    0.946
                            22 C    0.929
    22   6 C    3.946 --    23 O    1.641    28 N    1.299    21 C    0.929
    23   8 O    1.967 --    22 C    1.641    28 N    0.197
    24   6 C    3.989 --    25 C    0.993    21 C    0.982    74 H    0.973
                            73 H    0.971
    25   6 C    3.996 --    27 C    1.009    26 C    1.006    24 C    0.993
                            75 H    0.970
    26   6 C    3.994 --    25 C    1.006    76 H    0.987    77 H    0.986
                            78 H    0.986
    27   6 C    3.996 --    25 C    1.009    79 H    0.987    80 H    0.984
                            81 H    0.978
    28   7 N    3.463 --    22 C    1.299    29 C    0.970    82 H    0.924
                            23 O    0.197
    29   6 C    3.960 --    32 C    0.997    28 N    0.970    83 H    0.955
                            30 C    0.924
    30   6 C    3.946 --    31 O    1.666    33 N    1.288    29 C    0.924
    31   8 O    1.981 --    30 C    1.666    33 N    0.199
    32   6 C    3.985 --    29 C    0.997    84 H    0.985    85 H    0.981
                            86 H    0.981
    33   7 N    3.458 --    30 C    1.288    34 C    0.960    87 H    0.926
                            31 O    0.199
    34   6 C    3.957 --    37 C    0.974    33 N    0.960    88 H    0.955
                            35 C    0.941
    35   6 C    3.951 --    36 O    1.612    42 N    1.322    34 C    0.941
    36   8 O    1.932 --    35 C    1.612    42 N    0.194
    37   6 C    3.988 --    38 C    0.999    90 H    0.977    34 C    0.974
                            89 H    0.969
    38   6 C    3.990 --    37 C    0.999    92 H    0.970    91 H    0.964
                            39 C    0.941
    39   6 C    3.942 --    40 O    1.498    41 O    1.485    38 C    0.941
    40   8 O    1.791 --    39 C    1.498    41 O    0.222
    41   8 O    1.774 --    39 C    1.485    40 O    0.222
    42   7 N    3.486 --    35 C    1.322    43 C    0.972    93 H    0.914
                            36 O    0.194
    43   6 C    3.963 --    42 N    0.972    44 C    0.963    94 H    0.960
                            46 C    0.952
    44   6 C    3.870 --    45 O    1.877    43 C    0.963    95 H    0.953
    45   8 O    2.015 --    44 C    1.877
    46   6 C    3.980 --    47 C    0.996    97 H    0.973    96 H    0.967
                            43 C    0.952
    47   6 C    3.949 --    49 C    1.566    48 N    1.249    46 C    0.996
    48   7 N    2.922 --    50 C    1.493    47 C    1.249
    49   6 C    3.921 --    47 C    1.566    51 N    1.156    98 H    0.970
                            50 C    0.114
    50   6 C    2.918 --    48 N    1.493    51 N    1.259    49 C    0.114
    51   7 N    3.509 --    50 C    1.259    49 C    1.156    99 H    0.951
    52   1 H    0.977 --     1 N    0.949
    53   1 H    0.996 --     2 C    0.956
    54   1 H    1.000 --     3 C    0.953
    55   1 H    0.999 --     5 C    0.979
    56   1 H    0.999 --     5 C    0.974
    57   1 H    0.998 --     6 C    0.977
    58   1 H    0.998 --     6 C    0.973
    59   1 H    1.000 --     7 C    0.979
    60   1 H    0.999 --     7 C    0.975
    61   1 H    0.971 --     8 N    0.956
    62   1 H    0.976 --     8 N    0.952
    63   1 H    0.997 --     9 C    0.966
    64   1 H    0.998 --    12 C    0.971
    65   1 H    0.996 --    12 C    0.968
    66   1 H    0.998 --    14 C    0.972
    67   1 H    0.998 --    15 C    0.968
    68   1 H    0.997 --    16 C    0.971
    69   1 H    0.997 --    17 C    0.970
    70   1 H    0.881 --    19 O    0.862
    71   1 H    0.959 --    20 N    0.918
    72   1 H    0.993 --    21 C    0.946
    73   1 H    0.995 --    24 C    0.971
    74   1 H    0.997 --    24 C    0.973
    75   1 H    0.999 --    25 C    0.970
    76   1 H    0.998 --    26 C    0.987
    77   1 H    0.998 --    26 C    0.986
    78   1 H    0.997 --    26 C    0.986
    79   1 H    0.998 --    27 C    0.987
    80   1 H    0.998 --    27 C    0.984
    81   1 H    0.999 --    27 C    0.978
    82   1 H    0.956 --    28 N    0.924
    83   1 H    0.993 --    29 C    0.955
    84   1 H    0.996 --    32 C    0.985
    85   1 H    0.994 --    32 C    0.981
    86   1 H    0.994 --    32 C    0.981
    87   1 H    0.963 --    33 N    0.926
    88   1 H    0.994 --    34 C    0.955
    89   1 H    0.995 --    37 C    0.969
    90   1 H    0.998 --    37 C    0.977
    91   1 H    0.999 --    38 C    0.964
    92   1 H    0.999 --    38 C    0.970
    93   1 H    0.959 --    42 N    0.914
    94   1 H    0.995 --    43 C    0.960
    95   1 H    0.996 --    44 C    0.953
    96   1 H    0.998 --    46 C    0.967
    97   1 H    0.998 --    46 C    0.973
    98   1 H    0.997 --    49 C    0.970
    99   1 H    0.987 --    51 N    0.951
 ---------------------------------------------------------------------------

Topologies differ in total number of bonds
Writing topology from bond orders to xtbtopo.mol

molecular dipole:
                 x           y           z       tot (Debye)
 q only:      154.462     -36.755     -24.299
   full:      154.598     -37.267     -25.346     409.306
molecular quadrupole (traceless):
                xx          xy          yy          xz          yz          zz
 q only:   -11528.652    4076.476    5391.254    2845.475    -634.284    6137.398
  q+dip:   -11546.184    4119.490    5404.586    2957.219    -673.588    6141.598
   full:   -11544.082    4119.923    5403.641    2955.526    -672.876    6140.440


           -------------------------------------------------
          | TOTAL ENERGY             -157.800430276302 Eh   |
          | GRADIENT NORM               0.247484295606 Eh/α |
          | HOMO-LUMO GAP               0.108703067071 eV   |
           -------------------------------------------------
########################################################################
[WARNING] Runtime exception occurred
-2- restart_readRestart: Dimension missmatch in restart file.
-1- restart_readRestart: Number of electron missmatch in restart file.
########################################################################

------------------------------------------------------------------------
 * finished run on 2025/05/05 at 17:06:02.662     
------------------------------------------------------------------------
 total:
 * wall-time:     0 d,  0 h,  0 min,  0.433 sec
 *  cpu-time:     0 d,  0 h,  0 min, 10.530 sec
 * ratio c/w:    24.339 speedup
 SCF:
 * wall-time:     0 d,  0 h,  0 min,  0.424 sec
 *  cpu-time:     0 d,  0 h,  0 min, 10.362 sec
 * ratio c/w:    24.423 speedup

