      -----------------------------------------------------------      
     |                   =====================                   |     
     |                           x T B                           |     
     |                   =====================                   |     
     |                         S. Grimme                         |     
     |          Mulliken Center for Theoretical Chemistry        |     
     |                    University of Bonn                     |     
      -----------------------------------------------------------      

   * xtb version 6.7.1 (edcfbbe) compiled by 'conda@afd1a870197c' on 2025-04-11

   xtb is free software: you can redistribute it and/or modify it under
   the terms of the GNU Lesser General Public License as published by
   the Free Software Foundation, either version 3 of the License, or
   (at your option) any later version.
   
   xtb is distributed in the hope that it will be useful,
   but WITHOUT ANY WARRANTY; without even the implied warranty of
   MERCHANTABILITY or FITNESS FOR A PARTICULAR PURPOSE.  See the
   GNU Lesser General Public License for more details.
   
   Cite this work as:
   * C. Bannwarth, E. Caldeweyher, S. Ehlert, A. Hansen, P. Pracht,
     J. Seibert, S. Spicher, S. Grimme, WIREs Comput. Mol. Sci., 2020, 11,
     e01493. DOI: 10.1002/wcms.1493
   
   for GFN2-xTB:
   * C. Bannwarth, S. Ehlert and S. Grimme., J. Chem. Theory Comput., 2019,
     15, 1652-1671. DOI: 10.1021/acs.jctc.8b01176
   for GFN1-xTB:
   * S. Grimme, C. Bannwarth, P. Shushkov, J. Chem. Theory Comput., 2017,
     13, 1989-2009. DOI: 10.1021/acs.jctc.7b00118
   for GFN0-xTB:
   * P. Pracht, E. Caldeweyher, S. Ehlert, S. Grimme, ChemRxiv, 2019, preprint.
     DOI: 10.26434/chemrxiv.8326202.v1
   for GFN-FF:
   * S. Spicher and S. Grimme, Angew. Chem. Int. Ed., 2020, 59, 15665-15673.
     DOI: 10.1002/anie.202004239
   
   for ALPB and GBSA implicit solvation:
   * S. Ehlert, M. Stahn, S. Spicher, S. Grimme, J. Chem. Theory Comput.,
     2021, 17, 4250-4261. DOI: 10.1021/acs.jctc.1c00471
   
   for ddCOSMO and CPCM-X implicit solvation:
   * M. Stahn, S. Ehlert, S. Grimme, J. Phys. Chem. A,
     2023, XX, XXXX-XXXX. DOI: 10.1021/acs.jpca.3c04382
   
   for DFT-D4:
   * E. Caldeweyher, C. Bannwarth and S. Grimme, J. Chem. Phys., 2017,
     147, 034112. DOI: 10.1063/1.4993215
   * E. Caldeweyher, S. Ehlert, A. Hansen, H. Neugebauer, S. Spicher,
     C. Bannwarth and S. Grimme, J. Chem. Phys., 2019, 150, 154122.
     DOI: 10.1063/1.5090222
   * E. Caldeweyher, J.-M. Mewes, S. Ehlert and S. Grimme, Phys. Chem. Chem. Phys.
     2020, 22, 8499-8512. DOI: 10.1039/D0CP00502A
   
   for sTDA-xTB:
   * S. Grimme and C. Bannwarth, J. Chem. Phys., 2016, 145, 054103.
     DOI: 10.1063/1.4959605
   
   in the mass-spec context:
   * V. Asgeirsson, C. Bauer and S. Grimme, Chem. Sci., 2017, 8, 4879.
     DOI: 10.1039/c7sc00601b
   * J. Koopman and S. Grimme, ACS Omega 2019, 4, 12, 15120-15133.
     DOI: 10.1021/acsomega.9b02011
   
   for metadynamics refer to:
   * S. Grimme, J. Chem. Theory Comput., 2019, 155, 2847-2862
     DOI: 10.1021/acs.jctc.9b00143
   
   for SPH calculations refer to:
   * S. Spicher and S. Grimme, J. Chem. Theory Comput., 2021, 17, 1701-1714
     DOI: 10.1021/acs.jctc.0c01306
   
   for ONIOM refer to:
   * C. Plett, A. Katbashev, S. Ehlert, S. Grimme, M. Bursch,
     Phys. Chem. Chem. Phys., 2023, 25, 17860-17868. DOI: 10.1039/D3CP02178E
   
   for DIPRO refer to:
   * J. Kohn, N. Gildemeister, S. Grimme, D. Fazzi, A. Hansen,
     J. Chem. Phys., 2023, just accepted.
   
   for PTB refer to:
   * S. Grimme, M. Mueller, A. Hansen, J. Chem. Phys., 2023, 158, 124111.
     DOI: 10.1063/5.0137838
   
   with help from (in alphabetical order)
   P. Atkinson, C. Bannwarth, F. Bohle, G. Brandenburg, E. Caldeweyher
   M. Checinski, S. Dohm, S. Ehlert, S. Ehrlich, I. Gerasimov, C. Hölzer
   A. Katbashev, J. Kohn, J. Koopman, C. Lavigne, S. Lehtola, F. März, M. Müller,
   F. Musil, H. Neugebauer, J. Pisarek, C. Plett, P. Pracht, F. Pultar,
   J. Seibert, P. Shushkov, S. Spicher, M. Stahn, M. Steiner, T. Strunk,
   J. Stückrath, T. Rose, and J. Unsleber
   
 * started run on 2025/05/05 at 17:06:01.738     
   ID    Z sym.   atoms
    1    7 N      1, 8, 20, 28, 33, 42, 48, 51
    2    6 C      2, 3, 5-7, 9, 10, 12-18, 21, 22, 24-27, 29, 30, 32, 34, 35,
                  37-39, 43, 44, 46, 47, 49, 50
    3    8 O      4, 11, 19, 23, 31, 36, 40, 41, 45
    4    1 H      52-99

           -------------------------------------------------
          |                Calculation Setup                |
           -------------------------------------------------

          program call               : xtb /tmp/tmpoplj590k/HID/input.xyz --alpb ether --chrg -2 --input /tmp/tmpoplj590k/HID/constraints.inp --gfn 2
          hostname                   : fedora
          coordinate file            : /tmp/tmpoplj590k/HID/input.xyz
          omp threads                :                    32


molecular fragmentation (1/2 indicates fragments):
111111122222222222222222222222222222222222222222222111111111222222222222
222222222222222222222222222
# atoms in fragment 1/2:    16    83
 fragment masses (1/2) :       99.13      613.66
CMA distance (Bohr)    :  15.557
constraining FC (au)   :  0.0500
########################################################################
[WARNING] Please study the warnings concerning your input carefully
-1- readin_getIntValue: could not parse 'S'
########################################################################

           -------------------------------------------------
          |                 G F N 2 - x T B                 |
           -------------------------------------------------

        Reference                      10.1021/acs.jctc.8b01176
      * Hamiltonian:
        H0-scaling (s, p, d)           1.850000    2.230000    2.230000
        zeta-weighting                 0.500000
      * Dispersion:
        s8                             2.700000
        a1                             0.520000
        a2                             5.000000
        s9                             5.000000
      * Repulsion:
        kExp                           1.500000    1.000000
        rExp                           1.000000
      * Coulomb:
        alpha                          2.000000
        third order                    shell-resolved
        anisotropic                    true
        a3                             3.000000
        a5                             4.000000
        cn-shift                       1.200000
        cn-exp                         4.000000
        max-rad                        5.000000

      * Solvation model:               ALPB
        Solvent                        ether
        Parameter file                 internal GFN2-xTB/ALPB
        Dielectric constant                4.3300E+00
        Reference state                gsolv [1 M gas/solution]
        Free energy shift                  4.9534E-03 Eh       3.1083E+00 kcal/mol
        Temperature                        2.9815E+02 K
        Density                            7.1300E-01 kg/L
        Solvent mass                       7.4120E+01 g/mol
        Interaction kernel             P16
        Born radius scaling (c1)           1.5847E+00
        Born radii integrator          GBOBC
        Born offset                        0.0000E+00 a0       0.0000E+00 AA
        H-bond correction              true
        Ion screening                  false
        Surface tension                    1.0000E-05 Eh       1.5569E+01 dyn/cm
        Grid points                               230 per atom

          ...................................................
          :                      SETUP                      :
          :.................................................:
          :  # basis functions                 252          :
          :  # atomic orbitals                 252          :
          :  # shells                          150          :
          :  # electrons                       280          :
          :  max. iterations                   250          :
          :  Hamiltonian                  GFN2-xTB          :
          :  restarted?                      false          :
          :  GBSA solvation                   true          :
          :  PC potential                    false          :
          :  electronic temp.          300.0000000     K    :
          :  accuracy                    1.0000000          :
          :  -> integral cutoff          0.2500000E+02      :
          :  -> integral neglect         0.1000000E-07      :
          :  -> SCF convergence          0.1000000E-05 Eh   :
          :  -> wf. convergence          0.1000000E-03 e    :
          :  Broyden damping             0.4000000          :
          :  net charge                         -2          :
          :  unpaired electrons                  0          :
          ...................................................

 iter      E             dE          RMSdq      gap      omega  full diag
   1   -159.3581139 -0.159358E+03  0.437E+00    2.30       0.0  T
   2   -158.8593158  0.498798E+00  0.332E+00    0.07       1.0  T
   3   -159.5931160 -0.733800E+00  0.231E+00    2.11       1.0  T
   4   -159.8339078 -0.240792E+00  0.122E+00    2.16       1.0  T
   5   -159.8585712 -0.246633E-01  0.763E-01    1.21       1.0  T
   6   -159.8870372 -0.284661E-01  0.271E-01    0.09       1.0  T
   7   -159.8841358  0.290147E-02  0.335E-01    0.17       1.0  T
   8   -159.1734297  0.710706E+00  0.225E+00    0.11       1.0  T
   9   -159.8736091 -0.700179E+00  0.450E-01    0.65       1.0  T
  10   -159.8766771 -0.306796E-02  0.390E-01    0.45       1.0  T
  11   -159.8826112 -0.593417E-02  0.299E-01    0.20       1.0  T
  12   -159.8866071 -0.399588E-02  0.239E-01    0.16       1.0  T
  13   -159.8882778 -0.167068E-02  0.210E-01    0.17       1.0  T
  14   -159.8930529 -0.477508E-02  0.971E-02    0.09       1.0  T
  15   -159.8941958 -0.114290E-02  0.363E-02    0.12       1.0  T
  16   -159.8942757 -0.799469E-04  0.270E-02    0.12       1.0  T
  17   -159.8943421 -0.664236E-04  0.160E-02    0.11       1.0  T
  18   -159.8943733 -0.311952E-04  0.572E-03    0.11       1.8  T
  19   -159.8943769 -0.351609E-05  0.278E-03    0.11       3.6  T
  20   -159.8943777 -0.809888E-06  0.140E-03    0.11       7.2  T
  21   -159.8943779 -0.250064E-06  0.411E-04    0.11      24.5  T
  22   -159.8943779 -0.148374E-07  0.251E-04    0.11      40.1  T

   *** convergence criteria satisfied after 22 iterations ***

         #    Occupation            Energy/Eh            Energy/eV
      -------------------------------------------------------------
         1        2.0000           -0.6947687             -18.9056
       ...           ...                  ...                  ...
       134        2.0000           -0.3182934              -8.6612
       135        2.0000           -0.3168604              -8.6222
       136        2.0000           -0.3048639              -8.2958
       137        2.0000           -0.2949208              -8.0252
       138        2.0000           -0.2728608              -7.4249
       139        2.0000           -0.2629570              -7.1554
       140        1.7636           -0.2334875              -6.3535 (HOMO)
       141        0.1852           -0.2294103              -6.2426 (LUMO)
       142        0.0512           -0.2281200              -6.2075
       143                         -0.2085586              -5.6752
       144                         -0.2006181              -5.4591
       145                         -0.1975357              -5.3752
       ...                                ...                  ...
       252                          0.7356156              20.0171
      -------------------------------------------------------------
                  HL-Gap            0.0040772 Eh            0.1109 eV
             Fermi-level           -0.2315783 Eh           -6.3016 eV

 SCC (total)                   0 d,  0 h,  0 min,  0.469 sec
 SCC setup                      ...        0 min,  0.001 sec (  0.188%)
 Dispersion                     ...        0 min,  0.002 sec (  0.366%)
 classical contributions        ...        0 min,  0.000 sec (  0.029%)
 integral evaluation            ...        0 min,  0.006 sec (  1.174%)
 iterations                     ...        0 min,  0.451 sec ( 96.136%)
 molecular gradient             ...        0 min,  0.010 sec (  2.060%)
 printout                       ...        0 min,  0.000 sec (  0.044%)

         :::::::::::::::::::::::::::::::::::::::::::::::::::::
         ::                     SUMMARY                     ::
         :::::::::::::::::::::::::::::::::::::::::::::::::::::
         :: total energy            -157.801080076664 Eh    ::
         :: total w/o Gsasa/hb      -157.756094595906 Eh    ::
         :: gradient norm              0.250036599559 Eh/a0 ::
         :: HOMO-LUMO gap              0.110947285017 eV    ::
         ::.................................................::
         :: SCC energy              -159.888044305682 Eh    ::
         :: -> isotropic ES            0.696853605631 Eh    ::
         :: -> anisotropic ES          0.016303647871 Eh    ::
         :: -> anisotropic XC          0.048255545046 Eh    ::
         :: -> dispersion             -0.117388795405 Eh    ::
         :: -> Gsolv                  -0.259251426054 Eh    ::
         ::    -> Gelec               -0.214265945296 Eh    ::
         ::    -> Gsasa               -0.042496266976 Eh    ::
         ::    -> Ghb                 -0.007442651359 Eh    ::
         ::    -> Gshift               0.004953437577 Eh    ::
         :: repulsion energy           2.086964229018 Eh    ::
         :: add. restraining           0.000000000000 Eh    ::
         :: total charge              -2.000000000000 e     ::
         :::::::::::::::::::::::::::::::::::::::::::::::::::::

           -------------------------------------------------
          |                Property Printout                |
           -------------------------------------------------

    * Orbital Energies and Occupations

         #    Occupation            Energy/Eh            Energy/eV
      -------------------------------------------------------------
         1        2.0000           -0.6947687             -18.9056
       ...           ...                  ...                  ...
       128        2.0000           -0.3683178             -10.0224
       129        2.0000           -0.3610342              -9.8242
       130        2.0000           -0.3544548              -9.6452
       131        2.0000           -0.3472624              -9.4495
       132        2.0000           -0.3462212              -9.4212
       133        2.0000           -0.3231655              -8.7938
       134        2.0000           -0.3182934              -8.6612
       135        2.0000           -0.3168604              -8.6222
       136        2.0000           -0.3048639              -8.2958
       137        2.0000           -0.2949208              -8.0252
       138        2.0000           -0.2728608              -7.4249
       139        2.0000           -0.2629570              -7.1554
       140        1.7636           -0.2334875              -6.3535 (HOMO)
       141        0.1852           -0.2294103              -6.2426 (LUMO)
       142        0.0512           -0.2281200              -6.2075
       143                         -0.2085586              -5.6752
       144                         -0.2006181              -5.4591
       145                         -0.1975357              -5.3752
       146                         -0.1934145              -5.2631
       147                         -0.1742710              -4.7422
       148                         -0.1647936              -4.4843
       149                         -0.1024945              -2.7890
       150                         -0.0869427              -2.3658
       151                         -0.0752228              -2.0469
       ...                                ...                  ...
       252                          0.7356156              20.0171
      -------------------------------------------------------------
                  HL-Gap            0.0040772 Eh            0.1109 eV
             Fermi-level           -0.2315783 Eh           -6.3016 eV

     #   Z          covCN         q      C6AA      α(0)
     1   7 N        2.704    -0.276    27.138     7.737
     2   6 C        3.819     0.030    20.055     6.373
     3   6 C        2.766     0.168    24.365     8.084
     4   8 O        0.856    -0.439    22.474     6.356
     5   6 C        3.862    -0.046    21.352     6.571
     6   6 C        3.842    -0.049    21.413     6.583
     7   6 C        3.785     0.015    20.336     6.423
     8   7 N        2.632    -0.379    29.790     8.106
     9   6 C        3.791     0.029    20.089     6.383
    10   6 C        2.757     0.276    22.339     7.740
    11   8 O        0.861    -0.491    23.579     6.510
    12   6 C        3.824    -0.073    21.879     6.656
    13   6 C        2.971    -0.009    28.245     8.717
    14   6 C        2.928    -0.049    29.223     8.865
    15   6 C        2.934    -0.046    29.147     8.854
    16   6 C        2.917    -0.077    29.931     8.971
    17   6 C        2.920    -0.056    29.391     8.890
    18   6 C        2.849     0.142    24.894     8.177
    19   8 O        1.660    -0.453    21.909     6.319
    20   7 N        2.690    -0.187    25.048     7.433
    21   6 C        3.795     0.021    20.222     6.403
    22   6 C        2.755     0.274    22.374     7.746
    23   8 O        0.860    -0.488    23.516     6.502
    24   6 C        3.817    -0.077    21.949     6.668
    25   6 C        3.853    -0.013    20.771     6.482
    26   6 C        3.762    -0.122    22.880     6.819
    27   6 C        3.761    -0.110    22.652     6.785
    28   7 N        2.689    -0.181    24.928     7.415
    29   6 C        3.794     0.023    20.189     6.398
    30   6 C        2.748     0.282    22.226     7.720
    31   8 O        0.861    -0.473    23.198     6.458
    32   6 C        3.758    -0.129    23.029     6.842
    33   7 N        2.682    -0.190    25.112     7.443
    34   6 C        3.790     0.026    20.150     6.393
    35   6 C        2.771     0.279    22.284     7.731
    36   8 O        0.860    -0.505    23.887     6.553
    37   6 C        3.822    -0.052    21.495     6.598
    38   6 C        3.809    -0.088    22.168     6.702
    39   6 C        2.690     0.362    20.865     7.476
    40   8 O        0.857    -0.643    27.204     6.993
    41   8 O        0.857    -0.649    27.364     7.013
    42   7 N        2.690    -0.157    24.391     7.335
    43   6 C        3.796     0.039    19.922     6.356
    44   6 C        2.759     0.205    23.654     7.965
    45   8 O        0.856    -0.378    21.254     6.181
    46   6 C        3.810    -0.056    21.576     6.612
    47   6 C        3.088    -0.021    28.433     8.740
    48   7 N        2.843    -0.145    24.131     7.296
    49   6 C        3.053     0.000    27.976     8.674
    50   6 C        2.106    -0.157    35.291     9.599
    51   7 N        1.977    -0.412    31.649     8.343
    52   1 H        0.860     0.152     1.389     1.846
    53   1 H        0.927     0.040     2.444     2.445
    54   1 H        0.929     0.015     2.804     2.619
    55   1 H        0.927     0.032     2.564     2.504
    56   1 H        0.927     0.034     2.528     2.486
    57   1 H        0.927     0.045     2.378     2.411
    58   1 H        0.926     0.032     2.564     2.504
    59   1 H        0.926     0.014     2.819     2.626
    60   1 H        0.927     0.044     2.392     2.419
    61   1 H        0.860     0.171     1.269     1.765
    62   1 H        0.860     0.155     1.366     1.831
    63   1 H        0.927     0.055     2.261     2.351
    64   1 H        0.926     0.045     2.377     2.411
    65   1 H        0.927     0.054     2.270     2.356
    66   1 H        0.929     0.047     2.362     2.403
    67   1 H        0.929     0.043     2.409     2.427
    68   1 H        0.929     0.049     2.331     2.388
    69   1 H        0.929     0.052     2.292     2.367
    70   1 H        0.807     0.345     0.600     1.217
    71   1 H        0.861     0.203     1.089     1.634
    72   1 H        0.927     0.078     1.998     2.210
    73   1 H        0.927     0.065     2.144     2.290
    74   1 H        0.926     0.055     2.264     2.353
    75   1 H        0.927     0.032     2.558     2.501
    76   1 H        0.927     0.046     2.369     2.407
    77   1 H        0.927     0.043     2.405     2.425
    78   1 H        0.926     0.049     2.332     2.388
    79   1 H        0.926     0.041     2.440     2.443
    80   1 H        0.927     0.040     2.449     2.447
    81   1 H        0.927     0.036     2.503     2.474
    82   1 H        0.861     0.210     1.054     1.608
    83   1 H        0.927     0.085     1.929     2.172
    84   1 H        0.927     0.061     2.186     2.312
    85   1 H        0.927     0.072     2.066     2.248
    86   1 H        0.927     0.071     2.069     2.249
    87   1 H        0.861     0.191     1.150     1.680
    88   1 H        0.927     0.077     2.012     2.218
    89   1 H        0.927     0.070     2.091     2.261
    90   1 H        0.927     0.037     2.484     2.465
    91   1 H        0.927     0.032     2.552     2.498
    92   1 H        0.927     0.026     2.640     2.541
    93   1 H        0.861     0.204     1.087     1.633
    94   1 H        0.927     0.056     2.249     2.345
    95   1 H        0.929     0.056     2.251     2.346
    96   1 H        0.927     0.045     2.381     2.413
    97   1 H        0.927     0.034     2.530     2.487
    98   1 H        0.929    -0.049     4.061     3.151
    99   1 H        0.858     0.115     1.670     2.025

 Mol. C6AA /au·bohr⁶  :     101804.625024
 Mol. C8AA /au·bohr⁸  :    2299818.746111
 Mol. α(0) /au        :        481.590227


Wiberg/Mayer (AO) data.
largest (>0.10) Wiberg bond orders for each atom

 ---------------------------------------------------------------------------
     #   Z sym  total        # sym  WBO       # sym  WBO       # sym  WBO
 ---------------------------------------------------------------------------
     1   7 N    3.050 --     2 C    1.009     7 C    0.996    52 H    0.949
     2   6 C    3.989 --     1 N    1.009     3 C    0.988    53 H    0.956
                             5 C    0.949
     3   6 C    3.746 --     4 O    1.739     2 C    0.988    54 H    0.953
     4   8 O    1.886 --     3 C    1.739
     5   6 C    3.984 --     6 C    1.011    55 H    0.979    56 H    0.975
                             2 C    0.949
     6   6 C    3.995 --     5 C    1.011     7 C    1.007    57 H    0.977
                            58 H    0.973
     7   6 C    3.985 --     6 C    1.007     1 N    0.996    59 H    0.979
                            60 H    0.975
     8   7 N    2.995 --     9 C    1.013    61 H    0.955    62 H    0.952
     9   6 C    3.983 --     8 N    1.013    63 H    0.966    12 C    0.956
                            10 C    0.936
    10   6 C    3.942 --    11 O    1.657    20 N    1.284     9 C    0.936
    11   8 O    1.970 --    10 C    1.657    20 N    0.194
    12   6 C    3.996 --    13 C    1.013    64 H    0.971    65 H    0.968
                             9 C    0.956
    13   6 C    3.989 --    14 C    1.408    15 C    1.403    12 C    1.013
    14   6 C    3.992 --    16 C    1.451    13 C    1.408    66 H    0.972
                            17 C    0.106
    15   6 C    3.993 --    17 C    1.455    13 C    1.403    67 H    0.968
                            16 C    0.107
    16   6 C    3.989 --    14 C    1.451    18 C    1.370    68 H    0.971
                            15 C    0.107
    17   6 C    3.991 --    15 C    1.455    18 C    1.378    69 H    0.970
                            14 C    0.106
    18   6 C    3.932 --    17 C    1.378    16 C    1.370    19 O    1.052
    19   8 O    2.068 --    18 C    1.052    70 H    0.862
    20   7 N    3.448 --    10 C    1.284    21 C    0.967    71 H    0.918
                            11 O    0.194
    21   6 C    3.961 --    24 C    0.982    20 N    0.967    72 H    0.946
                            22 C    0.928
    22   6 C    3.947 --    23 O    1.642    28 N    1.299    21 C    0.928
    23   8 O    1.968 --    22 C    1.642    28 N    0.197
    24   6 C    3.988 --    25 C    0.993    21 C    0.982    74 H    0.973
                            73 H    0.971
    25   6 C    3.996 --    27 C    1.009    26 C    1.006    24 C    0.993
                            75 H    0.970
    26   6 C    3.994 --    25 C    1.006    76 H    0.987    77 H    0.986
                            78 H    0.986
    27   6 C    3.996 --    25 C    1.009    79 H    0.987    80 H    0.984
                            81 H    0.978
    28   7 N    3.463 --    22 C    1.299    29 C    0.970    82 H    0.924
                            23 O    0.197
    29   6 C    3.960 --    32 C    0.996    28 N    0.970    83 H    0.955
                            30 C    0.924
    30   6 C    3.945 --    31 O    1.668    33 N    1.286    29 C    0.924
    31   8 O    1.982 --    30 C    1.668    33 N    0.199
    32   6 C    3.985 --    29 C    0.996    84 H    0.985    85 H    0.981
                            86 H    0.981
    33   7 N    3.456 --    30 C    1.286    34 C    0.960    87 H    0.926
                            31 O    0.199
    34   6 C    3.957 --    37 C    0.973    33 N    0.960    88 H    0.954
                            35 C    0.941
    35   6 C    3.951 --    36 O    1.613    42 N    1.321    34 C    0.941
    36   8 O    1.931 --    35 C    1.613    42 N    0.193
    37   6 C    3.988 --    38 C    0.999    90 H    0.977    34 C    0.973
                            89 H    0.969
    38   6 C    3.990 --    37 C    0.999    92 H    0.970    91 H    0.964
                            39 C    0.941
    39   6 C    3.942 --    40 O    1.498    41 O    1.486    38 C    0.941
    40   8 O    1.791 --    39 C    1.498    41 O    0.222
    41   8 O    1.775 --    39 C    1.486    40 O    0.222
    42   7 N    3.483 --    35 C    1.321    43 C    0.972    93 H    0.914
                            36 O    0.193
    43   6 C    3.965 --    42 N    0.972    94 H    0.962    44 C    0.959
                            46 C    0.954
    44   6 C    3.855 --    45 O    1.865    43 C    0.959    95 H    0.953
    45   8 O    2.003 --    44 C    1.865
    46   6 C    3.982 --    47 C    0.997    97 H    0.973    96 H    0.967
                            43 C    0.954
    47   6 C    3.916 --    49 C    1.562    48 N    1.140    46 C    0.997
                            50 C    0.110
    48   7 N    3.503 --    50 C    1.259    47 C    1.140    99 H    0.950
    49   6 C    3.954 --    47 C    1.562    51 N    1.268    98 H    0.970
    50   6 C    2.919 --    51 N    1.491    48 N    1.259    47 C    0.110
    51   7 N    2.929 --    50 C    1.491    49 C    1.268
    52   1 H    0.977 --     1 N    0.949
    53   1 H    0.996 --     2 C    0.956
    54   1 H    1.000 --     3 C    0.953
    55   1 H    0.999 --     5 C    0.979
    56   1 H    0.999 --     5 C    0.975
    57   1 H    0.998 --     6 C    0.977
    58   1 H    0.999 --     6 C    0.973
    59   1 H    1.000 --     7 C    0.979
    60   1 H    0.998 --     7 C    0.975
    61   1 H    0.971 --     8 N    0.955
    62   1 H    0.976 --     8 N    0.952
    63   1 H    0.997 --     9 C    0.966
    64   1 H    0.998 --    12 C    0.971
    65   1 H    0.996 --    12 C    0.968
    66   1 H    0.998 --    14 C    0.972
    67   1 H    0.998 --    15 C    0.968
    68   1 H    0.997 --    16 C    0.971
    69   1 H    0.997 --    17 C    0.970
    70   1 H    0.881 --    19 O    0.862
    71   1 H    0.959 --    20 N    0.918
    72   1 H    0.994 --    21 C    0.946
    73   1 H    0.995 --    24 C    0.971
    74   1 H    0.997 --    24 C    0.973
    75   1 H    0.999 --    25 C    0.970
    76   1 H    0.998 --    26 C    0.987
    77   1 H    0.998 --    26 C    0.986
    78   1 H    0.997 --    26 C    0.986
    79   1 H    0.998 --    27 C    0.987
    80   1 H    0.998 --    27 C    0.984
    81   1 H    0.999 --    27 C    0.978
    82   1 H    0.956 --    28 N    0.924
    83   1 H    0.993 --    29 C    0.955
    84   1 H    0.996 --    32 C    0.985
    85   1 H    0.994 --    32 C    0.981
    86   1 H    0.994 --    32 C    0.981
    87   1 H    0.963 --    33 N    0.926
    88   1 H    0.994 --    34 C    0.954
    89   1 H    0.995 --    37 C    0.969
    90   1 H    0.999 --    37 C    0.977
    91   1 H    0.999 --    38 C    0.964
    92   1 H    0.999 --    38 C    0.970
    93   1 H    0.958 --    42 N    0.914
    94   1 H    0.996 --    43 C    0.962
    95   1 H    0.997 --    44 C    0.953
    96   1 H    0.997 --    46 C    0.967
    97   1 H    0.999 --    46 C    0.973
    98   1 H    0.996 --    49 C    0.970
    99   1 H    0.987 --    48 N    0.950
 ---------------------------------------------------------------------------

Topologies differ in total number of bonds
Writing topology from bond orders to xtbtopo.mol

molecular dipole:
                 x           y           z       tot (Debye)
 q only:      154.795     -38.426     -24.095
   full:      155.009     -40.029     -24.873     411.800
molecular quadrupole (traceless):
                xx          xy          yy          xz          yz          zz
 q only:   -11537.166    4261.651    5328.356    2830.202    -658.975    6208.811
  q+dip:   -11542.108    4419.216    5289.574    2916.315    -710.515    6252.534
   full:   -11540.045    4419.847    5288.797    2914.543    -709.622    6251.249


           -------------------------------------------------
          | TOTAL ENERGY             -157.801080076664 Eh   |
          | GRADIENT NORM               0.250036599559 Eh/α |
          | HOMO-LUMO GAP               0.110947285017 eV   |
           -------------------------------------------------
########################################################################
[WARNING] Runtime exception occurred
-2- restart_readRestart: Dimension missmatch in restart file.
-1- restart_readRestart: Number of electron missmatch in restart file.
########################################################################

------------------------------------------------------------------------
 * finished run on 2025/05/05 at 17:06:02.215     
------------------------------------------------------------------------
 total:
 * wall-time:     0 d,  0 h,  0 min,  0.477 sec
 *  cpu-time:     0 d,  0 h,  0 min, 12.619 sec
 * ratio c/w:    26.436 speedup
 SCF:
 * wall-time:     0 d,  0 h,  0 min,  0.469 sec
 *  cpu-time:     0 d,  0 h,  0 min, 12.450 sec
 * ratio c/w:    26.541 speedup

