      -----------------------------------------------------------      
     |                   =====================                   |     
     |                           x T B                           |     
     |                   =====================                   |     
     |                         S. Grimme                         |     
     |          Mulliken Center for Theoretical Chemistry        |     
     |                    University of Bonn                     |     
      -----------------------------------------------------------      

   * xtb version 6.7.1 (edcfbbe) compiled by 'conda@afd1a870197c' on 2025-04-11

   xtb is free software: you can redistribute it and/or modify it under
   the terms of the GNU Lesser General Public License as published by
   the Free Software Foundation, either version 3 of the License, or
   (at your option) any later version.
   
   xtb is distributed in the hope that it will be useful,
   but WITHOUT ANY WARRANTY; without even the implied warranty of
   MERCHANTABILITY or FITNESS FOR A PARTICULAR PURPOSE.  See the
   GNU Lesser General Public License for more details.
   
   Cite this work as:
   * C. Bannwarth, E. Caldeweyher, S. Ehlert, A. Hansen, P. Pracht,
     J. Seibert, S. Spicher, S. Grimme, WIREs Comput. Mol. Sci., 2020, 11,
     e01493. DOI: 10.1002/wcms.1493
   
   for GFN2-xTB:
   * C. Bannwarth, S. Ehlert and S. Grimme., J. Chem. Theory Comput., 2019,
     15, 1652-1671. DOI: 10.1021/acs.jctc.8b01176
   for GFN1-xTB:
   * S. Grimme, C. Bannwarth, P. Shushkov, J. Chem. Theory Comput., 2017,
     13, 1989-2009. DOI: 10.1021/acs.jctc.7b00118
   for GFN0-xTB:
   * P. Pracht, E. Caldeweyher, S. Ehlert, S. Grimme, ChemRxiv, 2019, preprint.
     DOI: 10.26434/chemrxiv.8326202.v1
   for GFN-FF:
   * S. Spicher and S. Grimme, Angew. Chem. Int. Ed., 2020, 59, 15665-15673.
     DOI: 10.1002/anie.202004239
   
   for ALPB and GBSA implicit solvation:
   * S. Ehlert, M. Stahn, S. Spicher, S. Grimme, J. Chem. Theory Comput.,
     2021, 17, 4250-4261. DOI: 10.1021/acs.jctc.1c00471
   
   for ddCOSMO and CPCM-X implicit solvation:
   * M. Stahn, S. Ehlert, S. Grimme, J. Phys. Chem. A,
     2023, XX, XXXX-XXXX. DOI: 10.1021/acs.jpca.3c04382
   
   for DFT-D4:
   * E. Caldeweyher, C. Bannwarth and S. Grimme, J. Chem. Phys., 2017,
     147, 034112. DOI: 10.1063/1.4993215
   * E. Caldeweyher, S. Ehlert, A. Hansen, H. Neugebauer, S. Spicher,
     C. Bannwarth and S. Grimme, J. Chem. Phys., 2019, 150, 154122.
     DOI: 10.1063/1.5090222
   * E. Caldeweyher, J.-M. Mewes, S. Ehlert and S. Grimme, Phys. Chem. Chem. Phys.
     2020, 22, 8499-8512. DOI: 10.1039/D0CP00502A
   
   for sTDA-xTB:
   * S. Grimme and C. Bannwarth, J. Chem. Phys., 2016, 145, 054103.
     DOI: 10.1063/1.4959605
   
   in the mass-spec context:
   * V. Asgeirsson, C. Bauer and S. Grimme, Chem. Sci., 2017, 8, 4879.
     DOI: 10.1039/c7sc00601b
   * J. Koopman and S. Grimme, ACS Omega 2019, 4, 12, 15120-15133.
     DOI: 10.1021/acsomega.9b02011
   
   for metadynamics refer to:
   * S. Grimme, J. Chem. Theory Comput., 2019, 155, 2847-2862
     DOI: 10.1021/acs.jctc.9b00143
   
   for SPH calculations refer to:
   * S. Spicher and S. Grimme, J. Chem. Theory Comput., 2021, 17, 1701-1714
     DOI: 10.1021/acs.jctc.0c01306
   
   for ONIOM refer to:
   * C. Plett, A. Katbashev, S. Ehlert, S. Grimme, M. Bursch,
     Phys. Chem. Chem. Phys., 2023, 25, 17860-17868. DOI: 10.1039/D3CP02178E
   
   for DIPRO refer to:
   * J. Kohn, N. Gildemeister, S. Grimme, D. Fazzi, A. Hansen,
     J. Chem. Phys., 2023, just accepted.
   
   for PTB refer to:
   * S. Grimme, M. Mueller, A. Hansen, J. Chem. Phys., 2023, 158, 124111.
     DOI: 10.1063/5.0137838
   
   with help from (in alphabetical order)
   P. Atkinson, C. Bannwarth, F. Bohle, G. Brandenburg, E. Caldeweyher
   M. Checinski, S. Dohm, S. Ehlert, S. Ehrlich, I. Gerasimov, C. Hölzer
   A. Katbashev, J. Kohn, J. Koopman, C. Lavigne, S. Lehtola, F. März, M. Müller,
   F. Musil, H. Neugebauer, J. Pisarek, C. Plett, P. Pracht, F. Pultar,
   J. Seibert, P. Shushkov, S. Spicher, M. Stahn, M. Steiner, T. Strunk,
   J. Stückrath, T. Rose, and J. Unsleber
   
 * started run on 2025/05/05 at 16:38:12.936     
   ID    Z sym.   atoms
    1    7 N      1, 9, 10, 18, 26, 33, 34, 40, 43, 44, 50, 58, 64, 72, 73,
                  81, 88, 90-92, 99, 107
    2    6 C      2, 3, 5-7, 11, 12, 14-17, 19, 20, 22, 23, 25, 27, 28, 30,
                  31, 35, 36, 38, 39, 41, 42, 45, 46, 48, 51, 52, 54-57,
                  59-63, 65, 66, 68-71, 74, 75, 77, 78, 82, 83, 85-87, 89,
                  93, 94, 96-98, 100, 101, 103-105
    3    8 O      4, 8, 13, 21, 29, 32, 37, 47, 53, 67, 76, 79, 80, 84, 95,
                  102, 106
    4   16 S      24, 49
    5    1 H      108-230

           -------------------------------------------------
          |                Calculation Setup                |
           -------------------------------------------------

          program call               : xtb /tmp/tmpo4rdnifu/HIE/input.xyz --alpb ether --chrg 4 --input /tmp/tmpo4rdnifu/HIE/constraints.inp --gfn 2
          hostname                   : fedora
          coordinate file            : /tmp/tmpo4rdnifu/HIE/input.xyz
          omp threads                :                    32


molecular fragmentation (1/2 indicates fragments):
111111111111111111111111111111111111111111111111111111111111111111111111
222222222222222222222222222222222222222222221111111111111111111111111111
111111111111111111111111111111111111122222222222222222222222222222222222
22222222211121
# atoms in fragment 1/2:   141    89
 fragment masses (1/2) :     1042.26      518.69
CMA distance (Bohr)    :  13.460
constraining FC (au)   :  0.0500

           -------------------------------------------------
          |                 G F N 2 - x T B                 |
           -------------------------------------------------

        Reference                      10.1021/acs.jctc.8b01176
      * Hamiltonian:
        H0-scaling (s, p, d)           1.850000    2.230000    2.230000
        zeta-weighting                 0.500000
      * Dispersion:
        s8                             2.700000
        a1                             0.520000
        a2                             5.000000
        s9                             5.000000
      * Repulsion:
        kExp                           1.500000    1.000000
        rExp                           1.000000
      * Coulomb:
        alpha                          2.000000
        third order                    shell-resolved
        anisotropic                    true
        a3                             3.000000
        a5                             4.000000
        cn-shift                       1.200000
        cn-exp                         4.000000
        max-rad                        5.000000

      * Solvation model:               ALPB
        Solvent                        ether
        Parameter file                 internal GFN2-xTB/ALPB
        Dielectric constant                4.3300E+00
        Reference state                gsolv [1 M gas/solution]
        Free energy shift                  4.9534E-03 Eh       3.1083E+00 kcal/mol
        Temperature                        2.9815E+02 K
        Density                            7.1300E-01 kg/L
        Solvent mass                       7.4120E+01 g/mol
        Interaction kernel             P16
        Born radius scaling (c1)           1.5847E+00
        Born radii integrator          GBOBC
        Born offset                        0.0000E+00 a0       0.0000E+00 AA
        H-bond correction              true
        Ion screening                  false
        Surface tension                    1.0000E-05 Eh       1.5569E+01 dyn/cm
        Grid points                               230 per atom

          ...................................................
          :                      SETUP                      :
          :.................................................:
          :  # basis functions                 563          :
          :  # atomic orbitals                 561          :
          :  # shells                          339          :
          :  # electrons                       607          :
          :  max. iterations                   250          :
          :  Hamiltonian                  GFN2-xTB          :
          :  restarted?                      false          :
          :  GBSA solvation                   true          :
          :  PC potential                    false          :
          :  electronic temp.          300.0000000     K    :
          :  accuracy                    1.0000000          :
          :  -> integral cutoff          0.2500000E+02      :
          :  -> integral neglect         0.1000000E-07      :
          :  -> SCF convergence          0.1000000E-05 Eh   :
          :  -> wf. convergence          0.1000000E-03 e    :
          :  Broyden damping             0.4000000          :
          :  net charge                          4          :
          :  unpaired electrons                  0          :
          ...................................................

 iter      E             dE          RMSdq      gap      omega  full diag
   1   -344.0409780 -0.344041E+03  0.475E+00    0.09       0.0  T
   2   -343.8403244  0.200654E+00  0.363E+00    0.04       1.0  T
   3   -345.3247178 -0.148439E+01  0.272E+00    0.35       1.0  T
   4   -346.0230500 -0.698332E+00  0.226E+00    0.08       1.0  T
   5   -345.5199321  0.503118E+00  0.198E+00    0.16       1.0  T
   6   -344.7966012  0.723331E+00  0.198E+00    0.15       1.0  T
   7   -345.9162898 -0.111969E+01  0.239E+00    0.05       1.0  T
   8   -345.9744455 -0.581556E-01  0.144E+00    0.04       1.0  T
   9   -346.3991817 -0.424736E+00  0.195E+00    0.17       1.0  T
  10   -346.5692532 -0.170072E+00  0.172E+00    0.15       1.0  T
  11   -346.0170572  0.552196E+00  0.187E+00    0.15       1.0  T
  12   -346.7672622 -0.750205E+00  0.801E-01    0.01       1.0  T
  13   -346.4256530  0.341609E+00  0.122E+00    0.03       1.0  T
  14   -346.7142731 -0.288620E+00  0.866E-01    0.01       1.0  T
  15   -346.6735295  0.407436E-01  0.146E+00    0.07       1.0  T
  16   -346.6270015  0.465280E-01  0.132E+00    0.05       1.0  T
  17   -346.8004405 -0.173439E+00  0.662E-01    0.02       1.0  T
  18   -346.7632597  0.371808E-01  0.123E+00    0.00       1.0  T
  19   -346.8495622 -0.863024E-01  0.423E-01    0.01       1.0  T
  20   -346.8446332  0.492895E-02  0.414E-01    0.01       1.0  T
  21   -346.8530731 -0.843991E-02  0.388E-01    0.01       1.0  T
  22   -346.8563256 -0.325244E-02  0.369E-01    0.01       1.0  T
  23   -346.8336983  0.226273E-01  0.397E-01    0.02       1.0  T
  24   -346.7685593  0.651390E-01  0.552E-01    0.08       1.0  T
  25   -346.8475332 -0.789739E-01  0.354E-01    0.04       1.0  T
  26   -346.8477421 -0.208859E-03  0.323E-01    0.03       1.0  T
  27   -346.8825809 -0.348388E-01  0.173E-01    0.02       1.0  T
  28   -346.8758782  0.670269E-02  0.221E-01    0.01       1.0  T
  29   -346.8855685 -0.969028E-02  0.148E-01    0.00       1.0  T
  30   -346.8871347 -0.156619E-02  0.148E-01    0.02       1.0  T
  31   -346.8858830  0.125165E-02  0.137E-01    0.02       1.0  T
  32   -346.8894645 -0.358143E-02  0.135E-01    0.01       1.0  T
  33   -346.8893216  0.142810E-03  0.121E-01    0.02       1.0  T
  34   -346.8883450  0.976621E-03  0.134E-01    0.01       1.0  T
  35   -346.8877678  0.577187E-03  0.128E-01    0.01       1.0  T
  36   -346.8914454 -0.367753E-02  0.649E-02    0.01       1.0  T
  37   -346.8926156 -0.117023E-02  0.295E-02    0.01       1.0  T
  38   -346.8928106 -0.195047E-03  0.123E-02    0.01       1.0  T
  39   -346.8927933  0.173978E-04  0.113E-02    0.01       1.0  T
  40   -346.8928410 -0.477556E-04  0.275E-03    0.01       2.4  T
  41   -346.8928386  0.237839E-05  0.359E-03    0.01       1.8  T
  42   -346.8928422 -0.353452E-05  0.137E-03    0.01       4.8  T
  43   -346.8928427 -0.525054E-06  0.812E-04    0.01       8.1  T
  44   -346.8928428 -0.640191E-07  0.386E-04    0.01      17.1  T

   *** convergence criteria satisfied after 44 iterations ***

         #    Occupation            Energy/Eh            Energy/eV
      -------------------------------------------------------------
         1        2.0000           -0.8161643             -22.2090
       ...           ...                  ...                  ...
       298        1.9152           -0.4592304             -12.4963
       299        1.8915           -0.4589826             -12.4896
       300        1.8307           -0.4585245             -12.4771
       301        1.8103           -0.4584039             -12.4738
       302        1.7245           -0.4579967             -12.4627
       303        1.6568           -0.4577449             -12.4559
       304        1.0719           -0.4563382             -12.4176 (HOMO)
       305        0.8575           -0.4559109             -12.4060 (LUMO)
       306        0.3881           -0.4547924             -12.3755
       307                         -0.3585556              -9.7568
       308                         -0.3465761              -9.4308
       309                         -0.3451261              -9.3914
       ...                                ...                  ...
       561                          1.0311015              28.0577
      -------------------------------------------------------------
                  HL-Gap            0.0004273 Eh            0.0116 eV
             Fermi-level           -0.4561953 Eh          -12.4137 eV

 SCC (total)                   0 d,  0 h,  0 min,  2.384 sec
 SCC setup                      ...        0 min,  0.004 sec (  0.151%)
 Dispersion                     ...        0 min,  0.009 sec (  0.394%)
 classical contributions        ...        0 min,  0.000 sec (  0.018%)
 integral evaluation            ...        0 min,  0.025 sec (  1.032%)
 iterations                     ...        0 min,  2.268 sec ( 95.122%)
 molecular gradient             ...        0 min,  0.071 sec (  2.985%)
 printout                       ...        0 min,  0.007 sec (  0.297%)

         :::::::::::::::::::::::::::::::::::::::::::::::::::::
         ::                     SUMMARY                     ::
         :::::::::::::::::::::::::::::::::::::::::::::::::::::
         :: total energy            -341.708242398007 Eh    ::
         :: total w/o Gsasa/hb      -341.605835124430 Eh    ::
         :: gradient norm              0.909770224085 Eh/a0 ::
         :: HOMO-LUMO gap              0.011627563567 eV    ::
         ::.................................................::
         :: SCC energy              -346.868517731783 Eh    ::
         :: -> isotropic ES            1.364431450890 Eh    ::
         :: -> anisotropic ES         -0.014875025786 Eh    ::
         :: -> anisotropic XC          0.175060511174 Eh    ::
         :: -> dispersion             -0.276646987227 Eh    ::
         :: -> Gsolv                  -0.647306546878 Eh    ::
         ::    -> Gelec               -0.544899273301 Eh    ::
         ::    -> Gsasa               -0.079475716364 Eh    ::
         ::    -> Ghb                 -0.027884994790 Eh    ::
         ::    -> Gshift               0.004953437577 Eh    ::
         :: repulsion energy           5.160275333776 Eh    ::
         :: add. restraining           0.000000000000 Eh    ::
         :: total charge               4.000000000257 e     ::
         :::::::::::::::::::::::::::::::::::::::::::::::::::::

           -------------------------------------------------
          |                Property Printout                |
           -------------------------------------------------

    * Orbital Energies and Occupations

         #    Occupation            Energy/Eh            Energy/eV
      -------------------------------------------------------------
         1        2.0000           -0.8161643             -22.2090
       ...           ...                  ...                  ...
       292        2.0000           -0.4685878             -12.7509
       293        1.9999           -0.4653091             -12.6617
       294        1.9885           -0.4611721             -12.5491
       295        1.9737           -0.4603774             -12.5275
       296        1.9625           -0.4600319             -12.5181
       297        1.9288           -0.4594045             -12.5010
       298        1.9152           -0.4592304             -12.4963
       299        1.8915           -0.4589826             -12.4896
       300        1.8307           -0.4585245             -12.4771
       301        1.8103           -0.4584039             -12.4738
       302        1.7245           -0.4579967             -12.4627
       303        1.6568           -0.4577449             -12.4559
       304        1.0719           -0.4563382             -12.4176 (HOMO)
       305        0.8575           -0.4559109             -12.4060 (LUMO)
       306        0.3881           -0.4547924             -12.3755
       307                         -0.3585556              -9.7568
       308                         -0.3465761              -9.4308
       309                         -0.3451261              -9.3914
       310                         -0.3308566              -9.0031
       311                         -0.3182106              -8.6590
       312                         -0.3102886              -8.4434
       313                         -0.3094355              -8.4202
       314                         -0.3070785              -8.3560
       315                         -0.3049033              -8.2968
       ...                                ...                  ...
       561                          1.0311015              28.0577
      -------------------------------------------------------------
                  HL-Gap            0.0004273 Eh            0.0116 eV
             Fermi-level           -0.4561953 Eh          -12.4137 eV

     #   Z          covCN         q      C6AA      α(0)
     1   7 N        2.635    -0.363    29.358     8.047
     2   6 C        3.790     0.025    20.159     6.394
     3   6 C        2.760     0.260    22.621     7.789
     4   8 O        0.859    -0.499    23.758     6.535
     5   6 C        3.821    -0.072    21.868     6.655
     6   6 C        3.813    -0.095    22.299     6.721
     7   6 C        2.747     0.280    22.259     7.725
     8   8 O        0.858    -0.483    23.404     6.486
     9   7 N        2.639    -0.274    27.097     7.731
    10   7 N        2.689    -0.173    24.736     7.387
    11   6 C        3.799     0.009    20.434     6.436
    12   6 C        2.756     0.273    22.385     7.748
    13   8 O        0.859    -0.481    23.369     6.481
    14   6 C        3.853    -0.031    21.092     6.532
    15   6 C        3.810    -0.074    21.911     6.663
    16   6 C        3.760    -0.132    23.079     6.849
    17   6 C        3.758    -0.124    22.930     6.827
    18   7 N        2.691    -0.176    24.808     7.397
    19   6 C        3.801     0.018    20.271     6.410
    20   6 C        2.759     0.271    22.422     7.754
    21   8 O        0.858    -0.492    23.598     6.513
    22   6 C        3.845    -0.086    22.105     6.688
    23   6 C        3.801    -0.058    21.625     6.621
    24  16 S        1.981     0.054   138.845    19.832
    25   6 C        3.753    -0.114    22.743     6.801
    26   7 N        2.689    -0.166    24.603     7.367
    27   6 C        3.801     0.026    20.143     6.390
    28   6 C        2.753     0.261    22.603     7.785
    29   8 O        0.859    -0.488    23.530     6.504
    30   6 C        3.814    -0.110    22.581     6.764
    31   6 C        2.743     0.281    22.244     7.722
    32   8 O        0.859    -0.493    23.624     6.517
    33   7 N        2.641    -0.273    27.063     7.726
    34   7 N        2.690    -0.159    24.447     7.343
    35   6 C        3.798     0.015    20.332     6.420
    36   6 C        2.758     0.266    22.517     7.771
    37   8 O        0.858    -0.473    23.196     6.457
    38   6 C        3.813    -0.087    22.156     6.700
    39   6 C        3.081     0.067    26.404     8.424
    40   7 N        1.990    -0.244    27.172     7.731
    41   6 C        3.058    -0.029    28.672     8.781
    42   6 C        2.103     0.058    29.403     8.761
    43   7 N        2.836    -0.059    22.380     7.026
    44   7 N        2.688    -0.173    24.748     7.389
    45   6 C        3.810     0.019    20.255     6.406
    46   6 C        2.761     0.266    22.514     7.770
    47   8 O        0.859    -0.462    22.956     6.424
    48   6 C        3.809    -0.029    21.086     6.536
    49  16 S        1.910    -0.155   147.581    20.447
    50   7 N        2.688    -0.156    24.368     7.332
    51   6 C        3.801     0.018    20.265     6.409
    52   6 C        2.759     0.269    22.466     7.762
    53   8 O        0.858    -0.462    22.949     6.423
    54   6 C        3.816    -0.081    22.040     6.682
    55   6 C        3.052     0.059    26.629     8.463
    56   6 C        3.025     0.031    27.292     8.569
    57   6 C        3.108    -0.004    27.987     8.668
    58   7 N        1.917    -0.192    25.976     7.557
    59   6 C        3.071     0.078    26.194     8.392
    60   6 C        2.911    -0.008    28.218     8.711
    61   6 C        2.908    -0.014    28.370     8.734
    62   6 C        2.915    -0.034    28.846     8.807
    63   6 C        2.920    -0.035    28.878     8.812
    64   7 N        2.698    -0.133    23.888     7.259
    65   6 C        3.798     0.021    20.223     6.403
    66   6 C        2.772     0.203    23.681     7.970
    67   8 O        0.856    -0.349    20.679     6.097
    68   6 C        3.815    -0.087    22.146     6.698
    69   6 C        3.808    -0.095    22.306     6.723
    70   6 C        3.808    -0.100    22.398     6.737
    71   6 C        3.733    -0.060    21.740     6.655
    72   7 N        3.485    -0.160    24.442     7.343
    73   7 N        2.630    -0.313    28.048     7.866
    74   6 C        3.792     0.029    20.103     6.385
    75   6 C        2.759     0.274    22.366     7.745
    76   8 O        0.859    -0.437    22.431     6.350
    77   6 C        3.816    -0.076    21.931     6.665
    78   6 C        2.691     0.392    20.373     7.387
    79   8 O        0.857    -0.462    22.969     6.426
    80   8 O        0.857    -0.430    22.290     6.330
    81   7 N        2.695    -0.135    23.932     7.266
    82   6 C        3.801     0.013    20.366     6.425
    83   6 C        2.773     0.262    22.591     7.784
    84   8 O        0.859    -0.479    23.321     6.475
    85   6 C        3.819    -0.083    22.068     6.686
    86   6 C        3.812    -0.091    22.218     6.709
    87   6 C        3.748    -0.029    21.150     6.559
    88   7 N        2.703    -0.151    24.276     7.318
    89   6 C        2.737     0.233    23.109     7.871
    90   7 N        2.655    -0.263    26.807     7.690
    91   7 N        2.656    -0.267    26.916     7.705
    92   7 N        2.769    -0.040    22.012     6.968
    93   6 C        3.836     0.024    20.153     6.387
    94   6 C        2.765     0.201    23.728     7.977
    95   8 O        0.856    -0.332    20.367     6.051
    96   6 C        3.853    -0.074    21.870     6.651
    97   6 C        3.851    -0.074    21.869     6.651
    98   6 C        3.779    -0.022    20.988     6.527
    99   7 N        2.631    -0.296    27.644     7.809
   100   6 C        3.785     0.028    20.118     6.389
   101   6 C        2.767     0.196    23.821     7.993
   102   8 O        0.856    -0.335    20.434     6.061
   103   6 C        3.808    -0.088    22.170     6.702
   104   6 C        3.806    -0.110    22.592     6.766
   105   6 C        2.742     0.285    22.172     7.710
   106   8 O        0.859    -0.478    23.303     6.472
   107   7 N        2.639    -0.269    26.957     7.711
   108   1 H        0.980     0.002     3.014     2.713
   109   1 H        0.980     0.002     3.018     2.715
   110   1 H        0.980     0.012     2.850     2.638
   111   1 H        0.980     0.035     2.508     2.474
   112   1 H        0.980     0.007     2.925     2.673
   113   1 H        0.980     0.009     2.891     2.657
   114   1 H        0.980     0.033     2.531     2.486
   115   1 H        0.980    -0.008     3.188     2.790
   116   1 H        0.980    -0.013     3.288     2.833
   117   1 H        0.860     0.156     1.362     1.828
   118   1 H        0.860     0.182     1.205     1.720
   119   1 H        0.927     0.042     2.416     2.431
   120   1 H        0.927     0.057     2.230     2.335
   121   1 H        0.926     0.082     1.962     2.191
   122   1 H        0.927     0.083     1.949     2.183
   123   1 H        0.927     0.058     2.225     2.332
   124   1 H        0.861     0.222     1.002     1.568
   125   1 H        0.861     0.242     0.915     1.498
   126   1 H        0.861     0.222     1.000     1.566
   127   1 H        0.927     0.091     1.869     2.138
   128   1 H        0.927     0.054     2.267     2.354
   129   1 H        0.927     0.047     2.360     2.402
   130   1 H        0.927     0.048     2.346     2.395
   131   1 H        0.927     0.058     2.227     2.334
   132   1 H        0.927     0.048     2.341     2.392
   133   1 H        0.926     0.065     2.144     2.290
   134   1 H        0.927     0.046     2.372     2.408
   135   1 H        0.927     0.043     2.415     2.430
   136   1 H        0.927     0.048     2.339     2.391
   137   1 H        0.861     0.216     1.027     1.587
   138   1 H        0.927     0.098     1.802     2.099
   139   1 H        0.927     0.079     1.993     2.208
   140   1 H        0.927     0.078     1.994     2.208
   141   1 H        0.927     0.100     1.789     2.092
   142   1 H        0.927     0.097     1.816     2.108
   143   1 H        0.927     0.097     1.811     2.105
   144   1 H        0.927     0.096     1.821     2.110
   145   1 H        0.927     0.107     1.718     2.050
   146   1 H        0.861     0.210     1.055     1.609
   147   1 H        0.927     0.098     1.801     2.099
   148   1 H        0.927     0.101     1.771     2.081
   149   1 H        0.927     0.082     1.958     2.188
   150   1 H        0.861     0.215     1.032     1.591
   151   1 H        0.861     0.241     0.919     1.501
   152   1 H        0.861     0.224     0.992     1.560
   153   1 H        0.926     0.119     1.623     1.992
   154   1 H        0.927     0.097     1.810     2.104
   155   1 H        0.927     0.102     1.765     2.078
   156   1 H        0.929     0.067     2.118     2.276
   157   1 H        0.861     0.228     0.976     1.547
   158   1 H        0.927     0.101     1.775     2.083
   159   1 H        0.927     0.097     1.810     2.104
   160   1 H        0.927     0.102     1.762     2.076
   161   1 H        0.921     0.200     1.100     1.640
   162   1 H        0.861     0.218     1.016     1.579
   163   1 H        0.927     0.123     1.588     1.971
   164   1 H        0.927     0.159     1.332     1.805
   165   1 H        0.927     0.113     1.671     2.022
   166   1 H        0.929     0.086     1.916     2.164
   167   1 H        0.929     0.088     1.894     2.152
   168   1 H        0.929     0.096     1.824     2.112
   169   1 H        0.929     0.084     1.940     2.178
   170   1 H        0.929     0.092     1.862     2.134
   171   1 H        0.861     0.228     0.973     1.545
   172   1 H        0.927     0.101     1.774     2.083
   173   1 H        0.929     0.086     1.918     2.166
   174   1 H        0.927     0.071     2.075     2.253
   175   1 H        0.927     0.089     1.885     2.147
   176   1 H        0.927     0.080     1.975     2.198
   177   1 H        0.927     0.084     1.940     2.178
   178   1 H        0.927     0.077     2.006     2.215
   179   1 H        0.927     0.081     1.968     2.194
   180   1 H        0.926     0.117     1.634     1.999
   181   1 H        0.927     0.127     1.560     1.953
   182   1 H        0.860     0.203     1.091     1.636
   183   1 H        0.860     0.210     1.059     1.612
   184   1 H        0.927     0.119     1.623     1.992
   185   1 H        0.926     0.125     1.571     1.960
   186   1 H        0.927     0.122     1.594     1.975
   187   1 H        0.861     0.238     0.931     1.512
   188   1 H        0.927     0.115     1.657     2.013
   189   1 H        0.926     0.075     2.036     2.232
   190   1 H        0.927     0.073     2.051     2.240
   191   1 H        0.927     0.077     2.006     2.215
   192   1 H        0.927     0.081     1.969     2.194
   193   1 H        0.927     0.088     1.894     2.152
   194   1 H        0.927     0.076     2.020     2.223
   195   1 H        0.861     0.243     0.912     1.496
   196   1 H        0.861     0.245     0.903     1.489
   197   1 H        0.861     0.251     0.879     1.469
   198   1 H        0.861     0.246     0.899     1.486
   199   1 H        0.927     0.105     1.743     2.064
   200   1 H        0.929     0.095     1.835     2.118
   201   1 H        0.927     0.090     1.882     2.145
   202   1 H        0.927     0.073     2.048     2.238
   203   1 H        0.927     0.074     2.043     2.235
   204   1 H        0.927     0.072     2.061     2.245
   205   1 H        0.927     0.084     1.935     2.175
   206   1 H        0.926     0.086     1.919     2.166
   207   1 H        0.860     0.198     1.117     1.656
   208   1 H        0.860     0.209     1.063     1.615
   209   1 H        0.927     0.095     1.827     2.113
   210   1 H        0.929     0.099     1.796     2.096
   211   1 H        0.926     0.075     2.035     2.231
   212   1 H        0.927     0.089     1.885     2.147
   213   1 H        0.927     0.090     1.878     2.143
   214   1 H        0.927     0.089     1.884     2.146
   215   1 H        0.861     0.223     0.995     1.563
   216   1 H        0.861     0.213     1.044     1.600
   217   1 H        0.980    -0.002     3.083     2.744
   218   1 H        0.980    -0.002     3.079     2.742
   219   1 H        0.980    -0.008     3.190     2.791
   220   1 H        0.980    -0.018     3.375     2.871
   221   1 H        0.980    -0.014     3.294     2.836
   222   1 H        0.980    -0.004     3.117     2.759
   223   1 H        0.980    -0.020     3.429     2.893
   224   1 H        0.980    -0.004     3.122     2.761
   225   1 H        0.980     0.017     2.777     2.604
   226   1 H        0.860     0.288     0.751     1.358
   227   1 H        0.860     0.296     0.725     1.334
   228   1 H        0.860     0.302     0.707     1.317
   229   1 H        0.860     0.256     0.862     1.454
   230   1 H        0.858     0.208     1.068     1.619

 Mol. C6AA /au·bohr⁶  :     481806.765227
 Mol. C8AA /au·bohr⁸  :   10969054.037377
 Mol. α(0) /au        :       1049.835792


Wiberg/Mayer (AO) data.
largest (>0.10) Wiberg bond orders for each atom

 ---------------------------------------------------------------------------
     #   Z sym  total        # sym  WBO       # sym  WBO       # sym  WBO
 ---------------------------------------------------------------------------
     1   7 N    2.977 --     2 C    1.008   117 H    0.961   118 H    0.949
     2   6 C    3.977 --     1 N    1.008     5 C    0.973   119 H    0.957
                             3 C    0.946
     3   6 C    3.949 --     4 O    1.613    10 N    1.318     2 C    0.946
     4   8 O    1.935 --     3 C    1.613    10 N    0.198
     5   6 C    3.987 --     6 C    1.005   120 H    0.974     2 C    0.973
                           121 H    0.962
     6   6 C    3.981 --     5 C    1.005   123 H    0.972     7 C    0.959
                           122 H    0.953
     7   6 C    3.939 --     8 O    1.632     9 N    1.321     6 C    0.959
     8   8 O    1.918 --     7 C    1.632     9 N    0.196
     9   7 N    3.404 --     7 C    1.321   124 H    0.930   125 H    0.921
                             8 O    0.196
    10   7 N    3.479 --     3 C    1.318    11 C    0.971   126 H    0.917
                             4 O    0.198
    11   6 C    3.958 --    10 N    0.971    14 C    0.958   127 H    0.951
                            12 C    0.943
    12   6 C    3.949 --    13 O    1.618    18 N    1.303    11 C    0.943
    13   8 O    1.952 --    12 C    1.618    18 N    0.191
    14   6 C    3.987 --    16 C    1.008    15 C    0.993   128 H    0.967
                            11 C    0.958
    15   6 C    3.996 --    17 C    1.019    14 C    0.993   129 H    0.976
                           130 H    0.975
    16   6 C    3.990 --    14 C    1.008   131 H    0.985   132 H    0.981
                           133 H    0.976
    17   6 C    3.993 --    15 C    1.019   134 H    0.987   135 H    0.983
                           136 H    0.980
    18   7 N    3.466 --    12 C    1.303    19 C    0.975   137 H    0.920
                            13 O    0.191
    19   6 C    3.962 --    22 C    0.978    18 N    0.975   138 H    0.949
                            20 C    0.938
    20   6 C    3.953 --    21 O    1.619    26 N    1.313    19 C    0.938
    21   8 O    1.940 --    20 C    1.619    26 N    0.197
    22   6 C    3.971 --    23 C    0.996    19 C    0.978   140 H    0.971
                           139 H    0.966
    23   6 C    3.959 --    24 S    0.999    22 C    0.996   141 H    0.964
                           142 H    0.960
    24  16 S    2.115 --    25 C    1.028    23 C    0.999
    25   6 C    3.940 --    24 S    1.028   143 H    0.971   144 H    0.964
                           145 H    0.933
    26   7 N    3.482 --    20 C    1.313    27 C    0.977   146 H    0.918
                            21 O    0.197
    27   6 C    3.959 --    26 N    0.977    30 C    0.972   147 H    0.938
                            28 C    0.935
    28   6 C    3.958 --    29 O    1.613    34 N    1.326    27 C    0.935
    29   8 O    1.941 --    28 C    1.613    34 N    0.205
    30   6 C    3.986 --    27 C    0.972   149 H    0.965    31 C    0.961
                           148 H    0.956
    31   6 C    3.948 --    32 O    1.643    33 N    1.321    30 C    0.961
    32   8 O    1.947 --    31 C    1.643    33 N    0.204
    33   7 N    3.413 --    31 C    1.321   150 H    0.933   151 H    0.921
                            32 O    0.204
    34   7 N    3.495 --    28 C    1.326    35 C    0.972   152 H    0.906
                            29 O    0.205
    35   6 C    3.954 --    38 C    0.977    34 N    0.972   153 H    0.941
                            36 C    0.937
    36   6 C    3.952 --    37 O    1.636    44 N    1.303    35 C    0.937
    37   8 O    1.956 --    36 C    1.636    44 N    0.199
    38   6 C    3.980 --    39 C    1.013    35 C    0.977   155 H    0.948
                           154 H    0.947
    39   6 C    3.897 --    41 C    1.567    40 N    1.177    38 C    1.013
    40   7 N    3.019 --    42 C    1.661    39 C    1.177
    41   6 C    3.896 --    39 C    1.567    43 N    1.170   156 H    0.967
                            42 C    0.117
    42   6 C    3.196 --    40 N    1.661    43 N    1.326    41 C    0.117
    43   7 N    3.569 --    42 C    1.326    41 C    1.170   230 H    0.923
    44   7 N    3.472 --    36 C    1.303    45 C    0.980   157 H    0.907
                            37 O    0.199
    45   6 C    3.956 --    44 N    0.980    48 C    0.976   158 H    0.945
                            46 C    0.931
    46   6 C    3.954 --    47 O    1.644    50 N    1.295    45 C    0.931
    47   8 O    1.970 --    46 C    1.644    50 N    0.196
    48   6 C    3.959 --    49 S    1.002    45 C    0.976   160 H    0.955
                           159 H    0.954
    49  16 S    1.997 --    48 C    1.002   161 H    0.888
    50   7 N    3.484 --    46 C    1.295    51 C    0.988   162 H    0.912
                            47 O    0.196
    51   6 C    3.946 --    50 N    0.988    54 C    0.970    52 C    0.926
                           163 H    0.924
    52   6 C    3.950 --    53 O    1.622    64 N    1.325    51 C    0.926
    53   8 O    1.958 --    52 C    1.622    64 N    0.196
    54   6 C    3.962 --    55 C    1.077    51 C    0.970   165 H    0.941
                           164 H    0.876
    55   6 C    3.759 --    56 C    1.327    57 C    1.135    54 C    1.077
    56   6 C    3.944 --    58 N    1.469    55 C    1.327   166 H    0.963
    57   6 C    3.959 --    60 C    1.395    59 C    1.244    55 C    1.135
    58   7 N    2.813 --    56 C    1.469    59 C    1.175
    59   6 C    3.958 --    61 C    1.368    57 C    1.244    58 N    1.175
    60   6 C    3.888 --    57 C    1.395    62 C    1.355   167 H    0.962
    61   6 C    3.897 --    63 C    1.374    59 C    1.368   168 H    0.963
    62   6 C    3.942 --    63 C    1.452    60 C    1.355   169 H    0.969
    63   6 C    3.944 --    62 C    1.452    61 C    1.374   170 H    0.950
    64   7 N    3.492 --    52 C    1.325    65 C    0.971   171 H    0.909
                            53 O    0.196
    65   6 C    3.959 --    66 C    0.978    64 N    0.971    68 C    0.961
                           172 H    0.948
    66   6 C    3.885 --    67 O    1.879    65 C    0.978   173 H    0.948
    67   8 O    2.086 --    66 C    1.879
    68   6 C    3.979 --    69 C    1.005   174 H    0.966   175 H    0.964
                            65 C    0.961
    69   6 C    3.988 --    70 C    1.010    68 C    1.005   176 H    0.967
                           177 H    0.967
    70   6 C    3.985 --    69 C    1.010    71 C    1.007   179 H    0.967
                           178 H    0.964
    71   6 C    3.901 --    70 C    1.007   180 H    0.970   181 H    0.965
                            72 N    0.938
    72   7 N    3.657 --    71 C    0.938   226 H    0.904   228 H    0.898
                           227 H    0.893
    73   7 N    3.006 --    74 C    1.029   182 H    0.941   183 H    0.928
    74   6 C    3.927 --    73 N    1.029    77 C    1.002   184 H    0.903
                            75 C    0.901
    75   6 C    3.931 --    76 O    1.629    81 N    1.325    74 C    0.901
    76   8 O    1.971 --    75 C    1.629    81 N    0.191
    77   6 C    3.818 --    74 C    1.002   186 H    0.945   185 H    0.938
                            78 C    0.825
    78   6 C    3.894 --    80 O    1.523    79 O    1.520    77 C    0.825
    79   8 O    1.852 --    78 C    1.520    80 O    0.250
    80   8 O    1.871 --    78 C    1.523    79 O    0.250
    81   7 N    3.479 --    75 C    1.325    82 C    0.976   187 H    0.907
                            76 O    0.191
    82   6 C    3.940 --    81 N    0.976    85 C    0.968   188 H    0.943
                            83 C    0.937
    83   6 C    3.942 --    84 O    1.616    92 N    1.294    82 C    0.937
    84   8 O    1.903 --    83 C    1.616    92 N    0.172
    85   6 C    3.977 --    86 C    1.003   190 H    0.969    82 C    0.968
                           189 H    0.967
    86   6 C    3.984 --    87 C    1.005    85 C    1.003   192 H    0.971
                           191 H    0.965
    87   6 C    3.956 --    86 C    1.005    88 N    0.983   193 H    0.960
                           194 H    0.959
    88   7 N    3.459 --    89 C    1.331    87 C    0.983   229 H    0.866
                            91 N    0.103    90 N    0.102
    89   6 C    3.977 --    88 N    1.331    91 N    1.309    90 N    1.308
    90   7 N    3.387 --    89 C    1.308   196 H    0.922   195 H    0.917
                            88 N    0.102
    91   7 N    3.382 --    89 C    1.309   198 H    0.921   197 H    0.913
                            88 N    0.103
    92   7 N    3.492 --    83 C    1.294    93 C    0.978    98 C    0.963
                            84 O    0.172
    93   6 C    3.943 --    92 N    0.978    94 C    0.965    96 C    0.959
                           199 H    0.938
    94   6 C    3.874 --    95 O    1.903    93 C    0.965   200 H    0.940
    95   8 O    2.038 --    94 C    1.903
    96   6 C    3.977 --    97 C    1.007   202 H    0.971   201 H    0.965
                            93 C    0.959
    97   6 C    3.989 --    98 C    1.009    96 C    1.007   204 H    0.974
                           203 H    0.970
    98   6 C    3.950 --    97 C    1.009   205 H    0.964    92 N    0.963
                           206 H    0.955
    99   7 N    2.944 --   100 C    1.015   207 H    0.945   208 H    0.931
   100   6 C    3.942 --    99 N    1.015   101 C    0.970   103 C    0.963
                           209 H    0.923
   101   6 C    3.882 --   102 O    1.923   100 C    0.970   210 H    0.939
   102   8 O    2.052 --   101 C    1.923
   103   6 C    3.979 --   104 C    1.001   212 H    0.967   211 H    0.967
                           100 C    0.963
   104   6 C    3.977 --   103 C    1.001   105 C    0.964   214 H    0.954
                           213 H    0.953
   105   6 C    3.942 --   106 O    1.648   107 N    1.302   104 C    0.964
   106   8 O    1.936 --   105 C    1.648   107 N    0.192
   107   7 N    3.391 --   105 C    1.302   216 H    0.932   215 H    0.919
                           106 O    0.192
   108   1 H    1.000 --   217 H    0.994
   109   1 H    1.000 --   218 H    0.992
   110   1 H    0.999 --   219 H    0.978
   111   1 H    0.998 --   220 H    0.925
   112   1 H    1.000 --   221 H    0.962
   113   1 H    1.000 --   222 H    0.955
   114   1 H    0.998 --   223 H    0.907
   115   1 H    0.999 --   224 H    0.964
   116   1 H    1.000 --   225 H    0.924
   117   1 H    0.974 --     1 N    0.961
   118   1 H    0.966 --     1 N    0.949
   119   1 H    0.990 --     2 C    0.957
   120   1 H    0.996 --     5 C    0.974
   121   1 H    0.993 --     5 C    0.962
   122   1 H    0.993 --     6 C    0.953
   123   1 H    0.996 --     6 C    0.972
   124   1 H    0.951 --     9 N    0.930
   125   1 H    0.940 --     9 N    0.921
   126   1 H    0.951 --    10 N    0.917
   127   1 H    0.991 --    11 C    0.951
   128   1 H    0.997 --    14 C    0.967
   129   1 H    0.998 --    15 C    0.976
   130   1 H    0.998 --    15 C    0.975
   131   1 H    0.997 --    16 C    0.985
   132   1 H    0.998 --    16 C    0.981
   133   1 H    0.995 --    16 C    0.976
   134   1 H    0.998 --    17 C    0.987
   135   1 H    0.997 --    17 C    0.983
   136   1 H    0.998 --    17 C    0.980
   137   1 H    0.953 --    18 N    0.920
   138   1 H    0.990 --    19 C    0.949
   139   1 H    0.993 --    22 C    0.966
   140   1 H    0.993 --    22 C    0.971
   141   1 H    0.990 --    23 C    0.964
   142   1 H    0.979 --    23 C    0.960
   143   1 H    0.990 --    25 C    0.971
   144   1 H    0.974 --    25 C    0.964
   145   1 H    0.971 --    25 C    0.933
   146   1 H    0.956 --    26 N    0.918
   147   1 H    0.990 --    27 C    0.938
   148   1 H    0.989 --    30 C    0.956
   149   1 H    0.993 --    30 C    0.965
   150   1 H    0.954 --    33 N    0.933
   151   1 H    0.941 --    33 N    0.921
   152   1 H    0.950 --    34 N    0.906
   153   1 H    0.985 --    35 C    0.941
   154   1 H    0.989 --    38 C    0.947
   155   1 H    0.984 --    38 C    0.948
   156   1 H    0.995 --    41 C    0.967
   157   1 H    0.948 --    44 N    0.907
   158   1 H    0.989 --    45 C    0.945
   159   1 H    0.981 --    48 C    0.954
   160   1 H    0.989 --    48 C    0.955
   161   1 H    0.960 --    49 S    0.888
   162   1 H    0.952 --    50 N    0.912
   163   1 H    0.983 --    51 C    0.924
   164   1 H    0.944 --    54 C    0.876
   165   1 H    0.979 --    54 C    0.941
   166   1 H    0.991 --    56 C    0.963
   167   1 H    0.990 --    60 C    0.962
   168   1 H    0.989 --    61 C    0.963
   169   1 H    0.993 --    62 C    0.969
   170   1 H    0.990 --    63 C    0.950
   171   1 H    0.948 --    64 N    0.909
   172   1 H    0.989 --    65 C    0.948
   173   1 H    0.992 --    66 C    0.948
   174   1 H    0.994 --    68 C    0.966
   175   1 H    0.992 --    68 C    0.964
   176   1 H    0.993 --    69 C    0.967
   177   1 H    0.993 --    69 C    0.967
   178   1 H    0.994 --    70 C    0.964
   179   1 H    0.993 --    70 C    0.967
   180   1 H    0.986 --    71 C    0.970
   181   1 H    0.984 --    71 C    0.965
   182   1 H    0.957 --    73 N    0.941
   183   1 H    0.947 --    73 N    0.928
   184   1 H    0.945 --    74 C    0.903
   185   1 H    0.980 --    77 C    0.938
   186   1 H    0.979 --    77 C    0.945
   187   1 H    0.943 --    81 N    0.907
   188   1 H    0.985 --    82 C    0.943
   189   1 H    0.992 --    85 C    0.967
   190   1 H    0.994 --    85 C    0.969
   191   1 H    0.993 --    86 C    0.965
   192   1 H    0.993 --    86 C    0.971
   193   1 H    0.990 --    87 C    0.960
   194   1 H    0.993 --    87 C    0.959
   195   1 H    0.941 --    90 N    0.917
   196   1 H    0.940 --    90 N    0.922
   197   1 H    0.937 --    91 N    0.913
   198   1 H    0.939 --    91 N    0.921
   199   1 H    0.982 --    93 C    0.938
   200   1 H    0.975 --    94 C    0.940
   201   1 H    0.989 --    96 C    0.965
   202   1 H    0.993 --    96 C    0.971
   203   1 H    0.994 --    97 C    0.970
   204   1 H    0.995 --    97 C    0.974
   205   1 H    0.989 --    98 C    0.964
   206   1 H    0.985 --    98 C    0.955
   207   1 H    0.958 --    99 N    0.945
   208   1 H    0.951 --    99 N    0.931
   209   1 H    0.945 --   100 C    0.923
   210   1 H    0.979 --   101 C    0.939
   211   1 H    0.994 --   103 C    0.967
   212   1 H    0.988 --   103 C    0.967
   213   1 H    0.991 --   104 C    0.953
   214   1 H    0.991 --   104 C    0.954
   215   1 H    0.950 --   107 N    0.919
   216   1 H    0.954 --   107 N    0.932
   217   1 H    1.000 --   108 H    0.994
   218   1 H    1.000 --   109 H    0.992
   219   1 H    1.000 --   110 H    0.978
   220   1 H    0.999 --   111 H    0.925
   221   1 H    1.000 --   112 H    0.962
   222   1 H    1.000 --   113 H    0.955
   223   1 H    0.999 --   114 H    0.907
   224   1 H    0.999 --   115 H    0.964
   225   1 H    1.000 --   116 H    0.924
   226   1 H    0.917 --    72 N    0.904
   227   1 H    0.912 --    72 N    0.893
   228   1 H    0.909 --    72 N    0.898
   229   1 H    0.935 --    88 N    0.866
   230   1 H    0.956 --    43 N    0.923
 ---------------------------------------------------------------------------

Topologies differ in total number of bonds
Writing topology from bond orders to xtbtopo.mol

molecular dipole:
                 x           y           z       tot (Debye)
 q only:      185.929      93.412     174.834
   full:      187.444      94.376     174.439     693.628
molecular quadrupole (traceless):
                xx          xy          yy          xz          yz          zz
 q only:     3829.949    6595.313   -6016.115   12141.620    6012.958    2186.165
  q+dip:     3976.359    6712.864   -6018.128   12223.778    6053.811    2041.769
   full:     3971.040    6711.899   -6015.373   12222.721    6050.467    2044.333


           -------------------------------------------------
          | TOTAL ENERGY             -341.708242398007 Eh   |
          | GRADIENT NORM               0.909770224085 Eh/α |
          | HOMO-LUMO GAP               0.011627563567 eV   |
           -------------------------------------------------
########################################################################
[WARNING] Runtime exception occurred
-2- restart_readRestart: Dimension missmatch in restart file.
-1- restart_readRestart: Number of electron missmatch in restart file.
########################################################################

------------------------------------------------------------------------
 * finished run on 2025/05/05 at 16:38:15.345     
------------------------------------------------------------------------
 total:
 * wall-time:     0 d,  0 h,  0 min,  2.409 sec
 *  cpu-time:     0 d,  0 h,  1 min,  9.205 sec
 * ratio c/w:    28.733 speedup
 SCF:
 * wall-time:     0 d,  0 h,  0 min,  2.386 sec
 *  cpu-time:     0 d,  0 h,  1 min,  8.648 sec
 * ratio c/w:    28.765 speedup

