      -----------------------------------------------------------      
     |                   =====================                   |     
     |                           x T B                           |     
     |                   =====================                   |     
     |                         S. Grimme                         |     
     |          Mulliken Center for Theoretical Chemistry        |     
     |                    University of Bonn                     |     
      -----------------------------------------------------------      

   * xtb version 6.7.1 (edcfbbe) compiled by 'conda@afd1a870197c' on 2025-04-11

   xtb is free software: you can redistribute it and/or modify it under
   the terms of the GNU Lesser General Public License as published by
   the Free Software Foundation, either version 3 of the License, or
   (at your option) any later version.
   
   xtb is distributed in the hope that it will be useful,
   but WITHOUT ANY WARRANTY; without even the implied warranty of
   MERCHANTABILITY or FITNESS FOR A PARTICULAR PURPOSE.  See the
   GNU Lesser General Public License for more details.
   
   Cite this work as:
   * C. Bannwarth, E. Caldeweyher, S. Ehlert, A. Hansen, P. Pracht,
     J. Seibert, S. Spicher, S. Grimme, WIREs Comput. Mol. Sci., 2020, 11,
     e01493. DOI: 10.1002/wcms.1493
   
   for GFN2-xTB:
   * C. Bannwarth, S. Ehlert and S. Grimme., J. Chem. Theory Comput., 2019,
     15, 1652-1671. DOI: 10.1021/acs.jctc.8b01176
   for GFN1-xTB:
   * S. Grimme, C. Bannwarth, P. Shushkov, J. Chem. Theory Comput., 2017,
     13, 1989-2009. DOI: 10.1021/acs.jctc.7b00118
   for GFN0-xTB:
   * P. Pracht, E. Caldeweyher, S. Ehlert, S. Grimme, ChemRxiv, 2019, preprint.
     DOI: 10.26434/chemrxiv.8326202.v1
   for GFN-FF:
   * S. Spicher and S. Grimme, Angew. Chem. Int. Ed., 2020, 59, 15665-15673.
     DOI: 10.1002/anie.202004239
   
   for ALPB and GBSA implicit solvation:
   * S. Ehlert, M. Stahn, S. Spicher, S. Grimme, J. Chem. Theory Comput.,
     2021, 17, 4250-4261. DOI: 10.1021/acs.jctc.1c00471
   
   for ddCOSMO and CPCM-X implicit solvation:
   * M. Stahn, S. Ehlert, S. Grimme, J. Phys. Chem. A,
     2023, XX, XXXX-XXXX. DOI: 10.1021/acs.jpca.3c04382
   
   for DFT-D4:
   * E. Caldeweyher, C. Bannwarth and S. Grimme, J. Chem. Phys., 2017,
     147, 034112. DOI: 10.1063/1.4993215
   * E. Caldeweyher, S. Ehlert, A. Hansen, H. Neugebauer, S. Spicher,
     C. Bannwarth and S. Grimme, J. Chem. Phys., 2019, 150, 154122.
     DOI: 10.1063/1.5090222
   * E. Caldeweyher, J.-M. Mewes, S. Ehlert and S. Grimme, Phys. Chem. Chem. Phys.
     2020, 22, 8499-8512. DOI: 10.1039/D0CP00502A
   
   for sTDA-xTB:
   * S. Grimme and C. Bannwarth, J. Chem. Phys., 2016, 145, 054103.
     DOI: 10.1063/1.4959605
   
   in the mass-spec context:
   * V. Asgeirsson, C. Bauer and S. Grimme, Chem. Sci., 2017, 8, 4879.
     DOI: 10.1039/c7sc00601b
   * J. Koopman and S. Grimme, ACS Omega 2019, 4, 12, 15120-15133.
     DOI: 10.1021/acsomega.9b02011
   
   for metadynamics refer to:
   * S. Grimme, J. Chem. Theory Comput., 2019, 155, 2847-2862
     DOI: 10.1021/acs.jctc.9b00143
   
   for SPH calculations refer to:
   * S. Spicher and S. Grimme, J. Chem. Theory Comput., 2021, 17, 1701-1714
     DOI: 10.1021/acs.jctc.0c01306
   
   for ONIOM refer to:
   * C. Plett, A. Katbashev, S. Ehlert, S. Grimme, M. Bursch,
     Phys. Chem. Chem. Phys., 2023, 25, 17860-17868. DOI: 10.1039/D3CP02178E
   
   for DIPRO refer to:
   * J. Kohn, N. Gildemeister, S. Grimme, D. Fazzi, A. Hansen,
     J. Chem. Phys., 2023, just accepted.
   
   for PTB refer to:
   * S. Grimme, M. Mueller, A. Hansen, J. Chem. Phys., 2023, 158, 124111.
     DOI: 10.1063/5.0137838
   
   with help from (in alphabetical order)
   P. Atkinson, C. Bannwarth, F. Bohle, G. Brandenburg, E. Caldeweyher
   M. Checinski, S. Dohm, S. Ehlert, S. Ehrlich, I. Gerasimov, C. Hölzer
   A. Katbashev, J. Kohn, J. Koopman, C. Lavigne, S. Lehtola, F. März, M. Müller,
   F. Musil, H. Neugebauer, J. Pisarek, C. Plett, P. Pracht, F. Pultar,
   J. Seibert, P. Shushkov, S. Spicher, M. Stahn, M. Steiner, T. Strunk,
   J. Stückrath, T. Rose, and J. Unsleber
   
 * started run on 2025/05/05 at 16:38:11.101     
   ID    Z sym.   atoms
    1    7 N      1, 9, 10, 18, 26, 33, 34, 40, 43, 44, 50, 58, 64, 72, 73,
                  81, 88, 90-92, 99, 107
    2    6 C      2, 3, 5-7, 11, 12, 14-17, 19, 20, 22, 23, 25, 27, 28, 30,
                  31, 35, 36, 38, 39, 41, 42, 45, 46, 48, 51, 52, 54-57,
                  59-63, 65, 66, 68-71, 74, 75, 77, 78, 82, 83, 85-87, 89,
                  93, 94, 96-98, 100, 101, 103-105
    3    8 O      4, 8, 13, 21, 29, 32, 37, 47, 53, 67, 76, 79, 80, 84, 95,
                  102, 106
    4   16 S      24, 49
    5    1 H      108-230

           -------------------------------------------------
          |                Calculation Setup                |
           -------------------------------------------------

          program call               : xtb /tmp/tmpo4rdnifu/HID/input.xyz --alpb ether --chrg 4 --input /tmp/tmpo4rdnifu/HID/constraints.inp --gfn 2
          hostname                   : fedora
          coordinate file            : /tmp/tmpo4rdnifu/HID/input.xyz
          omp threads                :                    32


molecular fragmentation (1/2 indicates fragments):
111111111111111111111111111111111111111111111111111111111111111111111111
222222222222222222222222222222222222222222221111111111111111111111111111
111111111111111111111111111111111111122222222222222222222222222222222222
22222222211121
# atoms in fragment 1/2:   141    89
 fragment masses (1/2) :     1042.26      518.69
CMA distance (Bohr)    :  13.461
constraining FC (au)   :  0.0500

           -------------------------------------------------
          |                 G F N 2 - x T B                 |
           -------------------------------------------------

        Reference                      10.1021/acs.jctc.8b01176
      * Hamiltonian:
        H0-scaling (s, p, d)           1.850000    2.230000    2.230000
        zeta-weighting                 0.500000
      * Dispersion:
        s8                             2.700000
        a1                             0.520000
        a2                             5.000000
        s9                             5.000000
      * Repulsion:
        kExp                           1.500000    1.000000
        rExp                           1.000000
      * Coulomb:
        alpha                          2.000000
        third order                    shell-resolved
        anisotropic                    true
        a3                             3.000000
        a5                             4.000000
        cn-shift                       1.200000
        cn-exp                         4.000000
        max-rad                        5.000000

      * Solvation model:               ALPB
        Solvent                        ether
        Parameter file                 internal GFN2-xTB/ALPB
        Dielectric constant                4.3300E+00
        Reference state                gsolv [1 M gas/solution]
        Free energy shift                  4.9534E-03 Eh       3.1083E+00 kcal/mol
        Temperature                        2.9815E+02 K
        Density                            7.1300E-01 kg/L
        Solvent mass                       7.4120E+01 g/mol
        Interaction kernel             P16
        Born radius scaling (c1)           1.5847E+00
        Born radii integrator          GBOBC
        Born offset                        0.0000E+00 a0       0.0000E+00 AA
        H-bond correction              true
        Ion screening                  false
        Surface tension                    1.0000E-05 Eh       1.5569E+01 dyn/cm
        Grid points                               230 per atom

          ...................................................
          :                      SETUP                      :
          :.................................................:
          :  # basis functions                 563          :
          :  # atomic orbitals                 561          :
          :  # shells                          339          :
          :  # electrons                       607          :
          :  max. iterations                   250          :
          :  Hamiltonian                  GFN2-xTB          :
          :  restarted?                      false          :
          :  GBSA solvation                   true          :
          :  PC potential                    false          :
          :  electronic temp.          300.0000000     K    :
          :  accuracy                    1.0000000          :
          :  -> integral cutoff          0.2500000E+02      :
          :  -> integral neglect         0.1000000E-07      :
          :  -> SCF convergence          0.1000000E-05 Eh   :
          :  -> wf. convergence          0.1000000E-03 e    :
          :  Broyden damping             0.4000000          :
          :  net charge                          4          :
          :  unpaired electrons                  0          :
          ...................................................

 iter      E             dE          RMSdq      gap      omega  full diag
   1   -344.0194393 -0.344019E+03  0.475E+00    0.08       0.0  T
   2   -343.6717183  0.347721E+00  0.358E+00    0.07       1.0  T
   3   -345.3917013 -0.171998E+01  0.273E+00    0.23       1.0  T
   4   -345.9790961 -0.587395E+00  0.222E+00    0.28       1.0  T
   5   -345.8068631  0.172233E+00  0.222E+00    0.06       1.0  T
   6   -346.0263821 -0.219519E+00  0.170E+00    0.07       1.0  T
   7   -345.4909509  0.535431E+00  0.190E+00    0.12       1.0  T
   8   -345.7019722 -0.211021E+00  0.255E+00    0.08       1.0  T
   9   -346.5263290 -0.824357E+00  0.110E+00    0.16       1.0  T
  10   -346.5755247 -0.491957E-01  0.116E+00    0.22       1.0  T
  11   -346.3377769  0.237748E+00  0.134E+00    0.05       1.0  T
  12   -346.5248080 -0.187031E+00  0.125E+00    0.01       1.0  T
  13   -346.2285452  0.296263E+00  0.151E+00    0.07       1.0  T
  14   -346.6905712 -0.462026E+00  0.993E-01    0.09       1.0  T
  15   -346.6597104  0.308608E-01  0.807E-01    0.18       1.0  T
  16   -346.7627140 -0.103004E+00  0.581E-01    0.08       1.0  T
  17   -346.7975006 -0.347866E-01  0.509E-01    0.02       1.0  T
  18   -346.2522476  0.545253E+00  0.122E+00    0.05       1.0  T
  19   -346.7809197 -0.528672E+00  0.543E-01    0.04       1.0  T
  20   -346.8289237 -0.480041E-01  0.405E-01    0.02       1.0  T
  21   -346.8346644 -0.574063E-02  0.383E-01    0.04       1.0  T
  22   -346.8219571  0.127073E-01  0.410E-01    0.04       1.0  T
  23   -346.8208015  0.115557E-02  0.405E-01    0.06       1.0  T
  24   -346.8486375 -0.278360E-01  0.305E-01    0.02       1.0  T
  25   -346.8537062 -0.506871E-02  0.280E-01    0.02       1.0  T
  26   -346.8670640 -0.133578E-01  0.206E-01    0.02       1.0  T
  27   -346.8651619  0.190208E-02  0.230E-01    0.01       1.0  T
  28   -346.8673757 -0.221377E-02  0.214E-01    0.01       1.0  T
  29   -346.8681767 -0.801095E-03  0.193E-01    0.00       1.0  T
  30   -346.8692130 -0.103623E-02  0.179E-01    0.01       1.0  T
  31   -346.8712760 -0.206298E-02  0.154E-01    0.01       1.0  T
  32   -346.8733631 -0.208718E-02  0.117E-01    0.01       1.0  T
  33   -346.8729417  0.421450E-03  0.115E-01    0.01       1.0  T
  34   -346.8719220  0.101965E-02  0.113E-01    0.00       1.0  T
  35   -346.8737017 -0.177967E-02  0.841E-02    0.01       1.0  T
  36   -346.8730098  0.691867E-03  0.933E-02    0.01       1.0  T
  37   -346.8752926 -0.228274E-02  0.451E-02    0.01       1.0  T
  38   -346.8757316 -0.439025E-03  0.231E-02    0.01       1.0  T
  39   -346.8757702 -0.385924E-04  0.206E-02    0.01       1.0  T
  40   -346.8758800 -0.109853E-03  0.896E-03    0.01       1.0  T
  41   -346.8758913 -0.113023E-04  0.555E-03    0.01       1.2  T
  42   -346.8758996 -0.825004E-05  0.143E-03    0.01       4.6  T
  43   -346.8759001 -0.457875E-06  0.724E-04    0.01       9.1  T
  44   -346.8759000  0.795977E-07  0.974E-04    0.01       6.8  T

   *** convergence criteria satisfied after 44 iterations ***

         #    Occupation            Energy/Eh            Energy/eV
      -------------------------------------------------------------
         1        2.0000           -0.8163279             -22.2134
       ...           ...                  ...                  ...
       298        1.8886           -0.4591369             -12.4938
       299        1.8823           -0.4590807             -12.4922
       300        1.8362           -0.4587399             -12.4829
       301        1.8194           -0.4586370             -12.4801
       302        1.7105           -0.4581223             -12.4661
       303        1.6675           -0.4579633             -12.4618
       304        1.1057           -0.4565903             -12.4245 (HOMO)
       305        0.8495           -0.4560805             -12.4106 (LUMO)
       306        0.4268           -0.4550968             -12.3838
       307                         -0.3612999              -9.8315
       308                         -0.3466240              -9.4321
       309                         -0.3447774              -9.3819
       ...                                ...                  ...
       561                          1.0306978              28.0467
      -------------------------------------------------------------
                  HL-Gap            0.0005098 Eh            0.0139 eV
             Fermi-level           -0.4563803 Eh          -12.4187 eV

 SCC (total)                   0 d,  0 h,  0 min,  1.791 sec
 SCC setup                      ...        0 min,  0.003 sec (  0.190%)
 Dispersion                     ...        0 min,  0.009 sec (  0.514%)
 classical contributions        ...        0 min,  0.000 sec (  0.022%)
 integral evaluation            ...        0 min,  0.015 sec (  0.817%)
 iterations                     ...        0 min,  1.696 sec ( 94.695%)
 molecular gradient             ...        0 min,  0.061 sec (  3.389%)
 printout                       ...        0 min,  0.007 sec (  0.371%)

         :::::::::::::::::::::::::::::::::::::::::::::::::::::
         ::                     SUMMARY                     ::
         :::::::::::::::::::::::::::::::::::::::::::::::::::::
         :: total energy            -341.690888084368 Eh    ::
         :: total w/o Gsasa/hb      -341.588762979029 Eh    ::
         :: gradient norm              0.910095935699 Eh/a0 ::
         :: HOMO-LUMO gap              0.013872638742 eV    ::
         ::.................................................::
         :: SCC energy              -346.851387894126 Eh    ::
         :: -> isotropic ES            1.377884900214 Eh    ::
         :: -> anisotropic ES         -0.007643958084 Eh    ::
         :: -> anisotropic XC          0.174137124331 Eh    ::
         :: -> dispersion             -0.276895455580 Eh    ::
         :: -> Gsolv                  -0.656147791790 Eh    ::
         ::    -> Gelec               -0.554022686452 Eh    ::
         ::    -> Gsasa               -0.079596352981 Eh    ::
         ::    -> Ghb                 -0.027482189935 Eh    ::
         ::    -> Gshift               0.004953437577 Eh    ::
         :: repulsion energy           5.160499809758 Eh    ::
         :: add. restraining           0.000000000000 Eh    ::
         :: total charge               4.000000000511 e     ::
         :::::::::::::::::::::::::::::::::::::::::::::::::::::

           -------------------------------------------------
          |                Property Printout                |
           -------------------------------------------------

    * Orbital Energies and Occupations

         #    Occupation            Energy/Eh            Energy/eV
      -------------------------------------------------------------
         1        2.0000           -0.8163279             -22.2134
       ...           ...                  ...                  ...
       292        2.0000           -0.4719611             -12.8427
       293        1.9999           -0.4663098             -12.6889
       294        1.9909           -0.4615701             -12.5600
       295        1.9691           -0.4604016             -12.5282
       296        1.9394           -0.4597436             -12.5103
       297        1.9141           -0.4593975             -12.5008
       298        1.8886           -0.4591369             -12.4938
       299        1.8823           -0.4590807             -12.4922
       300        1.8362           -0.4587399             -12.4829
       301        1.8194           -0.4586370             -12.4801
       302        1.7105           -0.4581223             -12.4661
       303        1.6675           -0.4579633             -12.4618
       304        1.1057           -0.4565903             -12.4245 (HOMO)
       305        0.8495           -0.4560805             -12.4106 (LUMO)
       306        0.4268           -0.4550968             -12.3838
       307                         -0.3612999              -9.8315
       308                         -0.3466240              -9.4321
       309                         -0.3447774              -9.3819
       310                         -0.3311656              -9.0115
       311                         -0.3219692              -8.7612
       312                         -0.3166576              -8.6167
       313                         -0.3122332              -8.4963
       314                         -0.3111984              -8.4681
       315                         -0.3080141              -8.3815
       ...                                ...                  ...
       561                          1.0306978              28.0467
      -------------------------------------------------------------
                  HL-Gap            0.0005098 Eh            0.0139 eV
             Fermi-level           -0.4563803 Eh          -12.4187 eV

     #   Z          covCN         q      C6AA      α(0)
     1   7 N        2.635    -0.362    29.334     8.044
     2   6 C        3.790     0.026    20.156     6.394
     3   6 C        2.760     0.261    22.605     7.786
     4   8 O        0.859    -0.504    23.871     6.551
     5   6 C        3.821    -0.073    21.875     6.656
     6   6 C        3.813    -0.095    22.309     6.723
     7   6 C        2.747     0.282    22.219     7.718
     8   8 O        0.858    -0.469    23.103     6.444
     9   7 N        2.639    -0.269    26.966     7.712
    10   7 N        2.689    -0.170    24.684     7.379
    11   6 C        3.799     0.008    20.442     6.438
    12   6 C        2.756     0.273    22.386     7.748
    13   8 O        0.859    -0.483    23.402     6.486
    14   6 C        3.853    -0.031    21.086     6.531
    15   6 C        3.810    -0.074    21.915     6.664
    16   6 C        3.760    -0.132    23.077     6.848
    17   6 C        3.758    -0.124    22.928     6.827
    18   7 N        2.691    -0.176    24.807     7.397
    19   6 C        3.801     0.018    20.273     6.410
    20   6 C        2.759     0.271    22.414     7.753
    21   8 O        0.858    -0.491    23.584     6.511
    22   6 C        3.845    -0.086    22.106     6.688
    23   6 C        3.801    -0.058    21.622     6.620
    24  16 S        1.981     0.053   138.909    19.837
    25   6 C        3.753    -0.114    22.735     6.799
    26   7 N        2.689    -0.168    24.633     7.371
    27   6 C        3.801     0.025    20.147     6.391
    28   6 C        2.753     0.260    22.613     7.787
    29   8 O        0.859    -0.489    23.533     6.504
    30   6 C        3.814    -0.110    22.588     6.765
    31   6 C        2.743     0.281    22.249     7.723
    32   8 O        0.859    -0.492    23.618     6.516
    33   7 N        2.641    -0.273    27.051     7.725
    34   7 N        2.690    -0.169    24.654     7.374
    35   6 C        3.798     0.015    20.325     6.419
    36   6 C        2.758     0.266    22.515     7.770
    37   8 O        0.858    -0.472    23.168     6.453
    38   6 C        3.813    -0.095    22.306     6.722
    39   6 C        3.081     0.031    27.217     8.553
    40   7 N        2.848    -0.052    22.238     7.004
    41   6 C        3.058     0.008    27.773     8.642
    42   6 C        2.103     0.046    29.709     8.807
    43   7 N        1.978    -0.217    26.542     7.640
    44   7 N        2.688    -0.171    24.706     7.382
    45   6 C        3.810     0.018    20.258     6.407
    46   6 C        2.761     0.266    22.516     7.771
    47   8 O        0.859    -0.462    22.969     6.426
    48   6 C        3.809    -0.028    21.075     6.535
    49  16 S        1.910    -0.161   147.868    20.467
    50   7 N        2.688    -0.157    24.402     7.337
    51   6 C        3.801     0.018    20.273     6.411
    52   6 C        2.759     0.268    22.477     7.764
    53   8 O        0.858    -0.466    23.037     6.435
    54   6 C        3.816    -0.081    22.030     6.680
    55   6 C        3.052     0.057    26.676     8.471
    56   6 C        3.025     0.030    27.301     8.571
    57   6 C        3.108    -0.005    28.006     8.671
    58   7 N        1.917    -0.194    26.027     7.564
    59   6 C        3.071     0.077    26.202     8.393
    60   6 C        2.911    -0.009    28.244     8.715
    61   6 C        2.908    -0.015    28.382     8.736
    62   6 C        2.915    -0.035    28.864     8.810
    63   6 C        2.920    -0.036    28.886     8.814
    64   7 N        2.698    -0.136    23.941     7.267
    65   6 C        3.798     0.022    20.216     6.402
    66   6 C        2.772     0.203    23.682     7.970
    67   8 O        0.856    -0.348    20.662     6.094
    68   6 C        3.815    -0.087    22.152     6.699
    69   6 C        3.808    -0.095    22.299     6.722
    70   6 C        3.808    -0.101    22.420     6.740
    71   6 C        3.733    -0.061    21.766     6.659
    72   7 N        3.485    -0.158    24.406     7.337
    73   7 N        2.630    -0.314    28.080     7.870
    74   6 C        3.792     0.028    20.107     6.386
    75   6 C        2.759     0.273    22.378     7.747
    76   8 O        0.859    -0.443    22.551     6.367
    77   6 C        3.816    -0.076    21.933     6.665
    78   6 C        2.691     0.391    20.388     7.390
    79   8 O        0.857    -0.465    23.020     6.433
    80   8 O        0.857    -0.435    22.388     6.344
    81   7 N        2.695    -0.137    23.962     7.270
    82   6 C        3.801     0.013    20.362     6.425
    83   6 C        2.773     0.261    22.597     7.786
    84   8 O        0.859    -0.481    23.364     6.481
    85   6 C        3.819    -0.083    22.068     6.686
    86   6 C        3.812    -0.090    22.208     6.708
    87   6 C        3.748    -0.028    21.145     6.559
    88   7 N        2.703    -0.152    24.293     7.320
    89   6 C        2.737     0.233    23.108     7.870
    90   7 N        2.655    -0.263    26.808     7.690
    91   7 N        2.656    -0.267    26.920     7.706
    92   7 N        2.769    -0.041    22.038     6.972
    93   6 C        3.836     0.024    20.151     6.386
    94   6 C        2.765     0.201    23.728     7.977
    95   8 O        0.856    -0.333    20.381     6.053
    96   6 C        3.853    -0.074    21.874     6.652
    97   6 C        3.851    -0.074    21.874     6.652
    98   6 C        3.779    -0.021    20.980     6.525
    99   7 N        2.631    -0.294    27.583     7.800
   100   6 C        3.785     0.028    20.118     6.389
   101   6 C        2.767     0.196    23.817     7.993
   102   8 O        0.856    -0.332    20.370     6.051
   103   6 C        3.808    -0.088    22.181     6.704
   104   6 C        3.806    -0.109    22.584     6.765
   105   6 C        2.742     0.286    22.148     7.706
   106   8 O        0.859    -0.470    23.132     6.448
   107   7 N        2.639    -0.265    26.877     7.700
   108   1 H        0.980     0.002     3.013     2.713
   109   1 H        0.980     0.002     3.017     2.714
   110   1 H        0.980     0.012     2.849     2.637
   111   1 H        0.980     0.035     2.508     2.475
   112   1 H        0.980     0.007     2.924     2.672
   113   1 H        0.980     0.010     2.889     2.656
   114   1 H        0.980     0.033     2.531     2.486
   115   1 H        0.980    -0.008     3.188     2.790
   116   1 H        0.980    -0.013     3.287     2.833
   117   1 H        0.860     0.156     1.361     1.828
   118   1 H        0.860     0.182     1.201     1.717
   119   1 H        0.927     0.042     2.416     2.431
   120   1 H        0.927     0.060     2.195     2.317
   121   1 H        0.926     0.082     1.962     2.190
   122   1 H        0.927     0.084     1.943     2.180
   123   1 H        0.927     0.067     2.121     2.277
   124   1 H        0.861     0.236     0.940     1.519
   125   1 H        0.861     0.244     0.908     1.492
   126   1 H        0.861     0.223     0.997     1.564
   127   1 H        0.927     0.093     1.850     2.127
   128   1 H        0.927     0.054     2.270     2.356
   129   1 H        0.927     0.048     2.349     2.396
   130   1 H        0.927     0.049     2.330     2.387
   131   1 H        0.927     0.058     2.226     2.333
   132   1 H        0.927     0.048     2.347     2.396
   133   1 H        0.926     0.065     2.144     2.290
   134   1 H        0.927     0.046     2.376     2.411
   135   1 H        0.927     0.043     2.409     2.427
   136   1 H        0.927     0.048     2.343     2.394
   137   1 H        0.861     0.217     1.025     1.586
   138   1 H        0.927     0.098     1.799     2.098
   139   1 H        0.927     0.078     1.995     2.209
   140   1 H        0.927     0.079     1.993     2.207
   141   1 H        0.927     0.100     1.787     2.091
   142   1 H        0.927     0.096     1.820     2.109
   143   1 H        0.927     0.097     1.814     2.106
   144   1 H        0.927     0.096     1.825     2.113
   145   1 H        0.927     0.107     1.722     2.052
   146   1 H        0.861     0.211     1.049     1.605
   147   1 H        0.927     0.100     1.789     2.092
   148   1 H        0.927     0.099     1.793     2.094
   149   1 H        0.927     0.083     1.947     2.182
   150   1 H        0.861     0.216     1.027     1.588
   151   1 H        0.861     0.242     0.915     1.499
   152   1 H        0.861     0.228     0.973     1.545
   153   1 H        0.926     0.101     1.773     2.082
   154   1 H        0.927     0.101     1.778     2.085
   155   1 H        0.927     0.108     1.711     2.046
   156   1 H        0.929     0.069     2.093     2.262
   157   1 H        0.861     0.229     0.969     1.542
   158   1 H        0.927     0.101     1.772     2.082
   159   1 H        0.927     0.096     1.818     2.108
   160   1 H        0.927     0.102     1.767     2.079
   161   1 H        0.921     0.199     1.102     1.642
   162   1 H        0.861     0.217     1.024     1.585
   163   1 H        0.927     0.122     1.601     1.979
   164   1 H        0.927     0.156     1.352     1.818
   165   1 H        0.927     0.110     1.698     2.038
   166   1 H        0.929     0.085     1.932     2.174
   167   1 H        0.929     0.087     1.910     2.161
   168   1 H        0.929     0.095     1.832     2.116
   169   1 H        0.929     0.083     1.950     2.183
   170   1 H        0.929     0.091     1.868     2.137
   171   1 H        0.861     0.227     0.978     1.549
   172   1 H        0.927     0.100     1.783     2.088
   173   1 H        0.929     0.086     1.915     2.164
   174   1 H        0.927     0.071     2.071     2.250
   175   1 H        0.927     0.090     1.881     2.145
   176   1 H        0.927     0.080     1.976     2.198
   177   1 H        0.927     0.081     1.966     2.192
   178   1 H        0.927     0.080     1.984     2.203
   179   1 H        0.927     0.084     1.937     2.176
   180   1 H        0.926     0.122     1.595     1.975
   181   1 H        0.927     0.123     1.589     1.971
   182   1 H        0.860     0.202     1.095     1.639
   183   1 H        0.860     0.208     1.065     1.616
   184   1 H        0.927     0.117     1.642     2.004
   185   1 H        0.926     0.122     1.594     1.974
   186   1 H        0.927     0.120     1.612     1.985
   187   1 H        0.861     0.237     0.935     1.514
   188   1 H        0.927     0.113     1.673     2.022
   189   1 H        0.926     0.074     2.042     2.235
   190   1 H        0.927     0.073     2.056     2.242
   191   1 H        0.927     0.077     2.014     2.219
   192   1 H        0.927     0.080     1.980     2.201
   193   1 H        0.927     0.088     1.901     2.156
   194   1 H        0.927     0.076     2.025     2.225
   195   1 H        0.861     0.243     0.912     1.496
   196   1 H        0.861     0.245     0.903     1.488
   197   1 H        0.861     0.251     0.881     1.470
   198   1 H        0.861     0.246     0.899     1.485
   199   1 H        0.927     0.104     1.745     2.066
   200   1 H        0.929     0.094     1.839     2.120
   201   1 H        0.927     0.090     1.879     2.144
   202   1 H        0.927     0.074     2.046     2.237
   203   1 H        0.927     0.074     2.038     2.233
   204   1 H        0.927     0.072     2.061     2.245
   205   1 H        0.927     0.083     1.946     2.181
   206   1 H        0.926     0.084     1.933     2.174
   207   1 H        0.860     0.199     1.109     1.650
   208   1 H        0.860     0.210     1.055     1.609
   209   1 H        0.927     0.099     1.795     2.095
   210   1 H        0.929     0.101     1.776     2.084
   211   1 H        0.926     0.077     2.010     2.217
   212   1 H        0.927     0.090     1.874     2.141
   213   1 H        0.927     0.091     1.865     2.136
   214   1 H        0.927     0.092     1.859     2.132
   215   1 H        0.861     0.224     0.989     1.558
   216   1 H        0.861     0.214     1.039     1.597
   217   1 H        0.980    -0.002     3.084     2.744
   218   1 H        0.980    -0.002     3.079     2.742
   219   1 H        0.980    -0.008     3.192     2.792
   220   1 H        0.980    -0.018     3.376     2.871
   221   1 H        0.980    -0.014     3.295     2.836
   222   1 H        0.980    -0.004     3.119     2.759
   223   1 H        0.980    -0.021     3.429     2.894
   224   1 H        0.980    -0.004     3.122     2.761
   225   1 H        0.980     0.017     2.777     2.604
   226   1 H        0.860     0.270     0.809     1.409
   227   1 H        0.860     0.300     0.712     1.322
   228   1 H        0.860     0.306     0.696     1.307
   229   1 H        0.860     0.255     0.865     1.457
   230   1 H        0.858     0.197     1.120     1.658

 Mol. C6AA /au·bohr⁶  :     481777.691918
 Mol. C8AA /au·bohr⁸  :   10968972.235770
 Mol. α(0) /au        :       1049.809842


Wiberg/Mayer (AO) data.
largest (>0.10) Wiberg bond orders for each atom

 ---------------------------------------------------------------------------
     #   Z sym  total        # sym  WBO       # sym  WBO       # sym  WBO
 ---------------------------------------------------------------------------
     1   7 N    2.978 --     2 C    1.008   117 H    0.960   118 H    0.949
     2   6 C    3.976 --     1 N    1.008     5 C    0.971   119 H    0.957
                             3 C    0.947
     3   6 C    3.949 --     4 O    1.605    10 N    1.323     2 C    0.947
     4   8 O    1.926 --     3 C    1.605    10 N    0.197
     5   6 C    3.985 --     6 C    1.006   120 H    0.973     2 C    0.971
                           121 H    0.961
     6   6 C    3.967 --     5 C    1.006   123 H    0.971     7 C    0.953
                           122 H    0.953
     7   6 C    3.935 --     8 O    1.617     9 N    1.338     6 C    0.953
     8   8 O    1.895 --     7 C    1.617     9 N    0.194
     9   7 N    3.412 --     7 C    1.338   124 H    0.925   125 H    0.920
                             8 O    0.194
    10   7 N    3.483 --     3 C    1.323    11 C    0.971   126 H    0.917
                             4 O    0.197
    11   6 C    3.957 --    10 N    0.971    14 C    0.957   127 H    0.950
                            12 C    0.944
    12   6 C    3.949 --    13 O    1.616    18 N    1.303    11 C    0.944
    13   8 O    1.950 --    12 C    1.616    18 N    0.190
    14   6 C    3.987 --    16 C    1.008    15 C    0.993   128 H    0.967
                            11 C    0.957
    15   6 C    3.996 --    17 C    1.019    14 C    0.993   129 H    0.975
                           130 H    0.975
    16   6 C    3.991 --    14 C    1.008   131 H    0.985   132 H    0.981
                           133 H    0.976
    17   6 C    3.993 --    15 C    1.019   134 H    0.987   135 H    0.983
                           136 H    0.981
    18   7 N    3.466 --    12 C    1.303    19 C    0.975   137 H    0.919
                            13 O    0.190
    19   6 C    3.963 --    22 C    0.978    18 N    0.975   138 H    0.949
                            20 C    0.939
    20   6 C    3.953 --    21 O    1.622    26 N    1.310    19 C    0.939
    21   8 O    1.941 --    20 C    1.622    26 N    0.196
    22   6 C    3.971 --    23 C    0.996    19 C    0.978   140 H    0.971
                           139 H    0.966
    23   6 C    3.960 --    24 S    0.999    22 C    0.996   141 H    0.964
                           142 H    0.960
    24  16 S    2.116 --    25 C    1.028    23 C    0.999
    25   6 C    3.940 --    24 S    1.028   143 H    0.971   144 H    0.964
                           145 H    0.933
    26   7 N    3.479 --    20 C    1.310    27 C    0.977   146 H    0.917
                            21 O    0.196
    27   6 C    3.960 --    26 N    0.977    30 C    0.971   147 H    0.938
                            28 C    0.937
    28   6 C    3.958 --    29 O    1.616    34 N    1.321    27 C    0.937
    29   8 O    1.942 --    28 C    1.616    34 N    0.203
    30   6 C    3.987 --    27 C    0.971   149 H    0.965    31 C    0.960
                           148 H    0.957
    31   6 C    3.949 --    32 O    1.644    33 N    1.323    30 C    0.960
    32   8 O    1.949 --    31 C    1.644    33 N    0.205
    33   7 N    3.415 --    31 C    1.323   150 H    0.932   151 H    0.921
                            32 O    0.205
    34   7 N    3.485 --    28 C    1.321    35 C    0.972   152 H    0.904
                            29 O    0.203
    35   6 C    3.959 --    38 C    0.977    34 N    0.972   153 H    0.942
                            36 C    0.935
    36   6 C    3.954 --    37 O    1.635    44 N    1.308    35 C    0.935
    37   8 O    1.959 --    36 C    1.635    44 N    0.202
    38   6 C    3.980 --    39 C    1.014    35 C    0.977   155 H    0.950
                           154 H    0.946
    39   6 C    3.903 --    41 C    1.567    40 N    1.143    38 C    1.014
                            42 C    0.115
    40   7 N    3.549 --    42 C    1.322    39 C    1.143   230 H    0.911
    41   6 C    3.895 --    39 C    1.567    43 N    1.210   156 H    0.966
    42   6 C    3.235 --    43 N    1.709    40 N    1.322    39 C    0.115
    43   7 N    3.079 --    42 C    1.709    41 C    1.210
    44   7 N    3.478 --    36 C    1.308    45 C    0.979   157 H    0.907
                            37 O    0.202
    45   6 C    3.956 --    44 N    0.979    48 C    0.976   158 H    0.945
                            46 C    0.931
    46   6 C    3.954 --    47 O    1.645    50 N    1.295    45 C    0.931
    47   8 O    1.971 --    46 C    1.645    50 N    0.197
    48   6 C    3.960 --    49 S    1.002    45 C    0.976   160 H    0.955
                           159 H    0.954
    49  16 S    1.998 --    48 C    1.002   161 H    0.888
    50   7 N    3.482 --    46 C    1.295    51 C    0.986   162 H    0.912
                            47 O    0.197
    51   6 C    3.947 --    50 N    0.986    54 C    0.971    52 C    0.928
                           163 H    0.924
    52   6 C    3.951 --    53 O    1.624    64 N    1.322    51 C    0.928
    53   8 O    1.957 --    52 C    1.624    64 N    0.197
    54   6 C    3.963 --    55 C    1.074    51 C    0.971   165 H    0.942
                           164 H    0.879
    55   6 C    3.747 --    56 C    1.331    57 C    1.135    54 C    1.074
    56   6 C    3.944 --    58 N    1.465    55 C    1.331   166 H    0.963
    57   6 C    3.958 --    60 C    1.394    59 C    1.243    55 C    1.135
    58   7 N    2.805 --    56 C    1.465    59 C    1.176
    59   6 C    3.957 --    61 C    1.368    57 C    1.243    58 N    1.176
    60   6 C    3.887 --    57 C    1.394    62 C    1.357   167 H    0.963
    61   6 C    3.896 --    63 C    1.376    59 C    1.368   168 H    0.963
    62   6 C    3.941 --    63 C    1.451    60 C    1.357   169 H    0.969
    63   6 C    3.943 --    62 C    1.451    61 C    1.376   170 H    0.951
    64   7 N    3.490 --    52 C    1.322    65 C    0.971   171 H    0.909
                            53 O    0.197
    65   6 C    3.960 --    66 C    0.977    64 N    0.971    68 C    0.962
                           172 H    0.948
    66   6 C    3.885 --    67 O    1.881    65 C    0.977   173 H    0.948
    67   8 O    2.087 --    66 C    1.881
    68   6 C    3.979 --    69 C    1.005   174 H    0.966   175 H    0.963
                            65 C    0.962
    69   6 C    3.988 --    70 C    1.010    68 C    1.005   176 H    0.968
                           177 H    0.967
    70   6 C    3.983 --    69 C    1.010    71 C    1.006   179 H    0.966
                           178 H    0.963
    71   6 C    3.898 --    70 C    1.006   180 H    0.969   181 H    0.965
                            72 N    0.934
    72   7 N    3.657 --    71 C    0.934   226 H    0.904   228 H    0.895
                           227 H    0.889
    73   7 N    3.001 --    74 C    1.028   182 H    0.941   183 H    0.929
    74   6 C    3.928 --    73 N    1.028    77 C    1.001   184 H    0.904
                            75 C    0.903
    75   6 C    3.932 --    76 O    1.626    81 N    1.326    74 C    0.903
    76   8 O    1.964 --    75 C    1.626    81 N    0.192
    77   6 C    3.819 --    74 C    1.001   186 H    0.946   185 H    0.939
                            78 C    0.828
    78   6 C    3.894 --    80 O    1.521    79 O    1.519    77 C    0.828
    79   8 O    1.846 --    78 C    1.519    80 O    0.248
    80   8 O    1.863 --    78 C    1.521    79 O    0.248
    81   7 N    3.480 --    75 C    1.326    82 C    0.976   187 H    0.907
                            76 O    0.192
    82   6 C    3.943 --    81 N    0.976    85 C    0.968   188 H    0.944
                            83 C    0.938
    83   6 C    3.943 --    84 O    1.617    92 N    1.294    82 C    0.938
    84   8 O    1.905 --    83 C    1.617    92 N    0.173
    85   6 C    3.978 --    86 C    1.003   190 H    0.969    82 C    0.968
                           189 H    0.967
    86   6 C    3.985 --    87 C    1.005    85 C    1.003   192 H    0.971
                           191 H    0.965
    87   6 C    3.956 --    86 C    1.005    88 N    0.982   193 H    0.961
                           194 H    0.959
    88   7 N    3.460 --    89 C    1.331    87 C    0.982   229 H    0.866
                            91 N    0.103    90 N    0.102
    89   6 C    3.977 --    88 N    1.331    91 N    1.309    90 N    1.308
    90   7 N    3.387 --    89 C    1.308   196 H    0.921   195 H    0.917
                            88 N    0.102
    91   7 N    3.383 --    89 C    1.309   198 H    0.921   197 H    0.913
                            88 N    0.103
    92   7 N    3.493 --    83 C    1.294    93 C    0.978    98 C    0.963
                            84 O    0.173
    93   6 C    3.944 --    92 N    0.978    94 C    0.966    96 C    0.959
                           199 H    0.938
    94   6 C    3.874 --    95 O    1.903    93 C    0.966   200 H    0.940
    95   8 O    2.037 --    94 C    1.903
    96   6 C    3.977 --    97 C    1.007   202 H    0.971   201 H    0.965
                            93 C    0.959
    97   6 C    3.989 --    98 C    1.009    96 C    1.007   204 H    0.974
                           203 H    0.970
    98   6 C    3.951 --    97 C    1.009   205 H    0.964    92 N    0.963
                           206 H    0.955
    99   7 N    2.944 --   100 C    1.016   207 H    0.944   208 H    0.930
   100   6 C    3.937 --    99 N    1.016   101 C    0.968   103 C    0.963
                           209 H    0.921
   101   6 C    3.880 --   102 O    1.924   100 C    0.968   210 H    0.938
   102   8 O    2.052 --   101 C    1.924
   103   6 C    3.978 --   104 C    1.000   212 H    0.967   211 H    0.966
                           100 C    0.963
   104   6 C    3.970 --   103 C    1.000   105 C    0.961   214 H    0.953
                           213 H    0.953
   105   6 C    3.940 --   106 O    1.645   107 N    1.305   104 C    0.961
   106   8 O    1.929 --   105 C    1.645   107 N    0.191
   107   7 N    3.392 --   105 C    1.305   216 H    0.931   215 H    0.918
                           106 O    0.191
   108   1 H    1.000 --   217 H    0.994
   109   1 H    1.000 --   218 H    0.992
   110   1 H    0.999 --   219 H    0.978
   111   1 H    0.998 --   220 H    0.925
   112   1 H    1.000 --   221 H    0.962
   113   1 H    1.000 --   222 H    0.955
   114   1 H    0.998 --   223 H    0.907
   115   1 H    0.999 --   224 H    0.964
   116   1 H    1.000 --   225 H    0.924
   117   1 H    0.974 --     1 N    0.960
   118   1 H    0.966 --     1 N    0.949
   119   1 H    0.990 --     2 C    0.957
   120   1 H    0.995 --     5 C    0.973
   121   1 H    0.993 --     5 C    0.961
   122   1 H    0.992 --     6 C    0.953
   123   1 H    0.994 --     6 C    0.971
   124   1 H    0.944 --     9 N    0.925
   125   1 H    0.939 --     9 N    0.920
   126   1 H    0.950 --    10 N    0.917
   127   1 H    0.991 --    11 C    0.950
   128   1 H    0.997 --    14 C    0.967
   129   1 H    0.998 --    15 C    0.975
   130   1 H    0.998 --    15 C    0.975
   131   1 H    0.997 --    16 C    0.985
   132   1 H    0.998 --    16 C    0.981
   133   1 H    0.995 --    16 C    0.976
   134   1 H    0.998 --    17 C    0.987
   135   1 H    0.997 --    17 C    0.983
   136   1 H    0.998 --    17 C    0.981
   137   1 H    0.953 --    18 N    0.919
   138   1 H    0.990 --    19 C    0.949
   139   1 H    0.993 --    22 C    0.966
   140   1 H    0.993 --    22 C    0.971
   141   1 H    0.989 --    23 C    0.964
   142   1 H    0.980 --    23 C    0.960
   143   1 H    0.990 --    25 C    0.971
   144   1 H    0.974 --    25 C    0.964
   145   1 H    0.971 --    25 C    0.933
   146   1 H    0.955 --    26 N    0.917
   147   1 H    0.990 --    27 C    0.938
   148   1 H    0.990 --    30 C    0.957
   149   1 H    0.993 --    30 C    0.965
   150   1 H    0.953 --    33 N    0.932
   151   1 H    0.941 --    33 N    0.921
   152   1 H    0.948 --    34 N    0.904
   153   1 H    0.989 --    35 C    0.942
   154   1 H    0.989 --    38 C    0.946
   155   1 H    0.985 --    38 C    0.950
   156   1 H    0.995 --    41 C    0.966
   157   1 H    0.947 --    44 N    0.907
   158   1 H    0.989 --    45 C    0.945
   159   1 H    0.982 --    48 C    0.954
   160   1 H    0.990 --    48 C    0.955
   161   1 H    0.960 --    49 S    0.888
   162   1 H    0.953 --    50 N    0.912
   163   1 H    0.983 --    51 C    0.924
   164   1 H    0.945 --    54 C    0.879
   165   1 H    0.980 --    54 C    0.942
   166   1 H    0.991 --    56 C    0.963
   167   1 H    0.990 --    60 C    0.963
   168   1 H    0.989 --    61 C    0.963
   169   1 H    0.993 --    62 C    0.969
   170   1 H    0.991 --    63 C    0.951
   171   1 H    0.948 --    64 N    0.909
   172   1 H    0.990 --    65 C    0.948
   173   1 H    0.992 --    66 C    0.948
   174   1 H    0.994 --    68 C    0.966
   175   1 H    0.992 --    68 C    0.963
   176   1 H    0.994 --    69 C    0.968
   177   1 H    0.993 --    69 C    0.967
   178   1 H    0.994 --    70 C    0.963
   179   1 H    0.993 --    70 C    0.966
   180   1 H    0.985 --    71 C    0.969
   181   1 H    0.985 --    71 C    0.965
   182   1 H    0.957 --    73 N    0.941
   183   1 H    0.948 --    73 N    0.929
   184   1 H    0.946 --    74 C    0.904
   185   1 H    0.981 --    77 C    0.939
   186   1 H    0.979 --    77 C    0.946
   187   1 H    0.944 --    81 N    0.907
   188   1 H    0.986 --    82 C    0.944
   189   1 H    0.992 --    85 C    0.967
   190   1 H    0.994 --    85 C    0.969
   191   1 H    0.994 --    86 C    0.965
   192   1 H    0.993 --    86 C    0.971
   193   1 H    0.991 --    87 C    0.961
   194   1 H    0.993 --    87 C    0.959
   195   1 H    0.941 --    90 N    0.917
   196   1 H    0.940 --    90 N    0.921
   197   1 H    0.937 --    91 N    0.913
   198   1 H    0.939 --    91 N    0.921
   199   1 H    0.982 --    93 C    0.938
   200   1 H    0.976 --    94 C    0.940
   201   1 H    0.988 --    96 C    0.965
   202   1 H    0.993 --    96 C    0.971
   203   1 H    0.994 --    97 C    0.970
   204   1 H    0.995 --    97 C    0.974
   205   1 H    0.990 --    98 C    0.964
   206   1 H    0.986 --    98 C    0.955
   207   1 H    0.957 --    99 N    0.944
   208   1 H    0.950 --    99 N    0.930
   209   1 H    0.942 --   100 C    0.921
   210   1 H    0.977 --   101 C    0.938
   211   1 H    0.994 --   103 C    0.966
   212   1 H    0.987 --   103 C    0.967
   213   1 H    0.991 --   104 C    0.953
   214   1 H    0.991 --   104 C    0.953
   215   1 H    0.949 --   107 N    0.918
   216   1 H    0.954 --   107 N    0.931
   217   1 H    1.000 --   108 H    0.994
   218   1 H    1.000 --   109 H    0.992
   219   1 H    1.000 --   110 H    0.978
   220   1 H    0.999 --   111 H    0.925
   221   1 H    1.000 --   112 H    0.962
   222   1 H    1.000 --   113 H    0.955
   223   1 H    0.999 --   114 H    0.907
   224   1 H    0.999 --   115 H    0.964
   225   1 H    1.000 --   116 H    0.924
   226   1 H    0.927 --    72 N    0.904
   227   1 H    0.910 --    72 N    0.889
   228   1 H    0.906 --    72 N    0.895
   229   1 H    0.935 --    88 N    0.866
   230   1 H    0.961 --    40 N    0.911
 ---------------------------------------------------------------------------

Topologies differ in total number of bonds
Writing topology from bond orders to xtbtopo.mol

molecular dipole:
                 x           y           z       tot (Debye)
 q only:      186.125      93.141     175.365
   full:      187.191      93.548     175.455     694.118
molecular quadrupole (traceless):
                xx          xy          yy          xz          yz          zz
 q only:     3829.986    6578.984   -6080.043   12197.401    6021.089    2250.057
  q+dip:     3927.676    6633.140   -6117.995   12284.741    6047.566    2190.318
   full:     3922.508    6632.415   -6114.977   12283.702    6044.257    2192.469


           -------------------------------------------------
          | TOTAL ENERGY             -341.690888084368 Eh   |
          | GRADIENT NORM               0.910095935699 Eh/α |
          | HOMO-LUMO GAP               0.013872638742 eV   |
           -------------------------------------------------
########################################################################
[WARNING] Runtime exception occurred
-2- restart_readRestart: Dimension missmatch in restart file.
-1- restart_readRestart: Number of electron missmatch in restart file.
########################################################################

------------------------------------------------------------------------
 * finished run on 2025/05/05 at 16:38:12.917     
------------------------------------------------------------------------
 total:
 * wall-time:     0 d,  0 h,  0 min,  1.816 sec
 *  cpu-time:     0 d,  0 h,  0 min, 56.751 sec
 * ratio c/w:    31.256 speedup
 SCF:
 * wall-time:     0 d,  0 h,  0 min,  1.794 sec
 *  cpu-time:     0 d,  0 h,  0 min, 56.173 sec
 * ratio c/w:    31.315 speedup

