      -----------------------------------------------------------      
     |                   =====================                   |     
     |                           x T B                           |     
     |                   =====================                   |     
     |                         S. Grimme                         |     
     |          Mulliken Center for Theoretical Chemistry        |     
     |                    University of Bonn                     |     
      -----------------------------------------------------------      

   * xtb version 6.7.1 (edcfbbe) compiled by 'conda@afd1a870197c' on 2025-04-11

   xtb is free software: you can redistribute it and/or modify it under
   the terms of the GNU Lesser General Public License as published by
   the Free Software Foundation, either version 3 of the License, or
   (at your option) any later version.
   
   xtb is distributed in the hope that it will be useful,
   but WITHOUT ANY WARRANTY; without even the implied warranty of
   MERCHANTABILITY or FITNESS FOR A PARTICULAR PURPOSE.  See the
   GNU Lesser General Public License for more details.
   
   Cite this work as:
   * C. Bannwarth, E. Caldeweyher, S. Ehlert, A. Hansen, P. Pracht,
     J. Seibert, S. Spicher, S. Grimme, WIREs Comput. Mol. Sci., 2020, 11,
     e01493. DOI: 10.1002/wcms.1493
   
   for GFN2-xTB:
   * C. Bannwarth, S. Ehlert and S. Grimme., J. Chem. Theory Comput., 2019,
     15, 1652-1671. DOI: 10.1021/acs.jctc.8b01176
   for GFN1-xTB:
   * S. Grimme, C. Bannwarth, P. Shushkov, J. Chem. Theory Comput., 2017,
     13, 1989-2009. DOI: 10.1021/acs.jctc.7b00118
   for GFN0-xTB:
   * P. Pracht, E. Caldeweyher, S. Ehlert, S. Grimme, ChemRxiv, 2019, preprint.
     DOI: 10.26434/chemrxiv.8326202.v1
   for GFN-FF:
   * S. Spicher and S. Grimme, Angew. Chem. Int. Ed., 2020, 59, 15665-15673.
     DOI: 10.1002/anie.202004239
   
   for ALPB and GBSA implicit solvation:
   * S. Ehlert, M. Stahn, S. Spicher, S. Grimme, J. Chem. Theory Comput.,
     2021, 17, 4250-4261. DOI: 10.1021/acs.jctc.1c00471
   
   for ddCOSMO and CPCM-X implicit solvation:
   * M. Stahn, S. Ehlert, S. Grimme, J. Phys. Chem. A,
     2023, XX, XXXX-XXXX. DOI: 10.1021/acs.jpca.3c04382
   
   for DFT-D4:
   * E. Caldeweyher, C. Bannwarth and S. Grimme, J. Chem. Phys., 2017,
     147, 034112. DOI: 10.1063/1.4993215
   * E. Caldeweyher, S. Ehlert, A. Hansen, H. Neugebauer, S. Spicher,
     C. Bannwarth and S. Grimme, J. Chem. Phys., 2019, 150, 154122.
     DOI: 10.1063/1.5090222
   * E. Caldeweyher, J.-M. Mewes, S. Ehlert and S. Grimme, Phys. Chem. Chem. Phys.
     2020, 22, 8499-8512. DOI: 10.1039/D0CP00502A
   
   for sTDA-xTB:
   * S. Grimme and C. Bannwarth, J. Chem. Phys., 2016, 145, 054103.
     DOI: 10.1063/1.4959605
   
   in the mass-spec context:
   * V. Asgeirsson, C. Bauer and S. Grimme, Chem. Sci., 2017, 8, 4879.
     DOI: 10.1039/c7sc00601b
   * J. Koopman and S. Grimme, ACS Omega 2019, 4, 12, 15120-15133.
     DOI: 10.1021/acsomega.9b02011
   
   for metadynamics refer to:
   * S. Grimme, J. Chem. Theory Comput., 2019, 155, 2847-2862
     DOI: 10.1021/acs.jctc.9b00143
   
   for SPH calculations refer to:
   * S. Spicher and S. Grimme, J. Chem. Theory Comput., 2021, 17, 1701-1714
     DOI: 10.1021/acs.jctc.0c01306
   
   for ONIOM refer to:
   * C. Plett, A. Katbashev, S. Ehlert, S. Grimme, M. Bursch,
     Phys. Chem. Chem. Phys., 2023, 25, 17860-17868. DOI: 10.1039/D3CP02178E
   
   for DIPRO refer to:
   * J. Kohn, N. Gildemeister, S. Grimme, D. Fazzi, A. Hansen,
     J. Chem. Phys., 2023, just accepted.
   
   for PTB refer to:
   * S. Grimme, M. Mueller, A. Hansen, J. Chem. Phys., 2023, 158, 124111.
     DOI: 10.1063/5.0137838
   
   with help from (in alphabetical order)
   P. Atkinson, C. Bannwarth, F. Bohle, G. Brandenburg, E. Caldeweyher
   M. Checinski, S. Dohm, S. Ehlert, S. Ehrlich, I. Gerasimov, C. Hölzer
   A. Katbashev, J. Kohn, J. Koopman, C. Lavigne, S. Lehtola, F. März, M. Müller,
   F. Musil, H. Neugebauer, J. Pisarek, C. Plett, P. Pracht, F. Pultar,
   J. Seibert, P. Shushkov, S. Spicher, M. Stahn, M. Steiner, T. Strunk,
   J. Stückrath, T. Rose, and J. Unsleber
   
 * started run on 2025/05/05 at 17:00:46.460     
   ID    Z sym.   atoms
    1    7 N      1, 8, 9, 16, 17, 22, 28, 31, 32, 40
    2    6 C      2, 3, 5, 6, 10, 11, 13, 14, 18, 19, 21, 23, 24, 26, 27, 29,
                  30, 33, 34, 36-39, 41, 42, 44, 45
    3    8 O      4, 7, 12, 15, 20, 25, 35, 43, 46, 47
    4    1 H      48-89

           -------------------------------------------------
          |                Calculation Setup                |
           -------------------------------------------------

          program call               : xtb /tmp/tmppelpeul7/HIE/input.xyz --alpb ether --chrg -2 --input /tmp/tmppelpeul7/HIE/constraints.inp --gfn 2
          hostname                   : fedora
          coordinate file            : /tmp/tmppelpeul7/HIE/input.xyz
          omp threads                :                    32


molecular fragmentation (1/2 indicates fragments):
111111112222222222222222222222222222222222222221111111122222222222222222
22222222222222222
# atoms in fragment 1/2:    16    73
 fragment masses (1/2) :      116.12      550.57
CMA distance (Bohr)    :   7.720
constraining FC (au)   :  0.0500
########################################################################
[WARNING] Please study the warnings concerning your input carefully
-1- readin_getIntValue: could not parse 'S'
########################################################################

           -------------------------------------------------
          |                 G F N 2 - x T B                 |
           -------------------------------------------------

        Reference                      10.1021/acs.jctc.8b01176
      * Hamiltonian:
        H0-scaling (s, p, d)           1.850000    2.230000    2.230000
        zeta-weighting                 0.500000
      * Dispersion:
        s8                             2.700000
        a1                             0.520000
        a2                             5.000000
        s9                             5.000000
      * Repulsion:
        kExp                           1.500000    1.000000
        rExp                           1.000000
      * Coulomb:
        alpha                          2.000000
        third order                    shell-resolved
        anisotropic                    true
        a3                             3.000000
        a5                             4.000000
        cn-shift                       1.200000
        cn-exp                         4.000000
        max-rad                        5.000000

      * Solvation model:               ALPB
        Solvent                        ether
        Parameter file                 internal GFN2-xTB/ALPB
        Dielectric constant                4.3300E+00
        Reference state                gsolv [1 M gas/solution]
        Free energy shift                  4.9534E-03 Eh       3.1083E+00 kcal/mol
        Temperature                        2.9815E+02 K
        Density                            7.1300E-01 kg/L
        Solvent mass                       7.4120E+01 g/mol
        Interaction kernel             P16
        Born radius scaling (c1)           1.5847E+00
        Born radii integrator          GBOBC
        Born offset                        0.0000E+00 a0       0.0000E+00 AA
        H-bond correction              true
        Ion screening                  false
        Surface tension                    1.0000E-05 Eh       1.5569E+01 dyn/cm
        Grid points                               230 per atom

          ...................................................
          :                      SETUP                      :
          :.................................................:
          :  # basis functions                 230          :
          :  # atomic orbitals                 230          :
          :  # shells                          136          :
          :  # electrons                       262          :
          :  max. iterations                   250          :
          :  Hamiltonian                  GFN2-xTB          :
          :  restarted?                      false          :
          :  GBSA solvation                   true          :
          :  PC potential                    false          :
          :  electronic temp.          300.0000000     K    :
          :  accuracy                    1.0000000          :
          :  -> integral cutoff          0.2500000E+02      :
          :  -> integral neglect         0.1000000E-07      :
          :  -> SCF convergence          0.1000000E-05 Eh   :
          :  -> wf. convergence          0.1000000E-03 e    :
          :  Broyden damping             0.4000000          :
          :  net charge                         -2          :
          :  unpaired electrons                  0          :
          ...................................................

 iter      E             dE          RMSdq      gap      omega  full diag
   1   -150.8465212 -0.150847E+03  0.479E+00    2.44       0.0  T
   2   -150.2950506  0.551471E+00  0.369E+00    0.19       1.0  T
   3   -151.2150167 -0.919966E+00  0.249E+00    0.55       1.0  T
   4   -151.4538905 -0.238874E+00  0.140E+00    0.42       1.0  T
   5   -150.7033586  0.750532E+00  0.254E+00    0.29       1.0  T
   6   -151.4623048 -0.758946E+00  0.939E-01    0.96       1.0  T
   7   -151.4866071 -0.243023E-01  0.627E-01    0.42       1.0  T
   8   -151.4985233 -0.119162E-01  0.467E-01    0.20       1.0  T
   9   -150.5241617  0.974362E+00  0.294E+00    0.48       1.0  T
  10   -151.4753239 -0.951162E+00  0.598E-01    0.04       1.0  T
  11   -151.5137058 -0.383819E-01  0.249E-01    0.13       1.0  T
  12   -151.5198795 -0.617372E-02  0.131E-01    0.09       1.0  T
  13   -151.5207792 -0.899722E-03  0.931E-02    0.10       1.0  T
  14   -151.5216480 -0.868775E-03  0.347E-02    0.09       1.0  T
  15   -151.5216017  0.463336E-04  0.380E-02    0.10       1.0  T
  16   -151.5217863 -0.184597E-03  0.844E-03    0.09       1.3  T
  17   -151.5217919 -0.562774E-05  0.596E-03    0.09       1.8  T
  18   -151.5217919 -0.414608E-07  0.545E-03    0.09       1.9  T
  19   -151.5217951 -0.313319E-05  0.265E-03    0.09       4.0  T
  20   -151.5217958 -0.767161E-06  0.737E-04    0.09      14.4  T
  21   -151.5217959 -0.703061E-07  0.138E-04    0.09      76.9  T

   *** convergence criteria satisfied after 21 iterations ***

         #    Occupation            Energy/Eh            Energy/eV
      -------------------------------------------------------------
         1        2.0000           -0.6830119             -18.5857
       ...           ...                  ...                  ...
       125        2.0000           -0.3315078              -9.0208
       126        2.0000           -0.3171334              -8.6296
       127        2.0000           -0.3115757              -8.4784
       128        2.0000           -0.3072766              -8.3614
       129        2.0000           -0.2784643              -7.5774
       130        2.0000           -0.2699985              -7.3470
       131        1.6545           -0.2395541              -6.5186 (HOMO)
       132        0.2304           -0.2361291              -6.4254 (LUMO)
       133        0.1151           -0.2354096              -6.4058
       134                         -0.1881281              -5.1192
       135                         -0.1823077              -4.9608
       136                         -0.1804342              -4.9099
       ...                                ...                  ...
       230                          0.7370581              20.0564
      -------------------------------------------------------------
                  HL-Gap            0.0034250 Eh            0.0932 eV
             Fermi-level           -0.2380660 Eh           -6.4781 eV

 SCC (total)                   0 d,  0 h,  0 min,  0.363 sec
 SCC setup                      ...        0 min,  0.001 sec (  0.231%)
 Dispersion                     ...        0 min,  0.001 sec (  0.390%)
 classical contributions        ...        0 min,  0.000 sec (  0.043%)
 integral evaluation            ...        0 min,  0.004 sec (  1.151%)
 iterations                     ...        0 min,  0.345 sec ( 95.151%)
 molecular gradient             ...        0 min,  0.011 sec (  2.956%)
 printout                       ...        0 min,  0.000 sec (  0.075%)

         :::::::::::::::::::::::::::::::::::::::::::::::::::::
         ::                     SUMMARY                     ::
         :::::::::::::::::::::::::::::::::::::::::::::::::::::
         :: total energy            -149.699627615195 Eh    ::
         :: total w/o Gsasa/hb      -149.652562893028 Eh    ::
         :: gradient norm              0.208892246064 Eh/a0 ::
         :: HOMO-LUMO gap              0.093200238923 eV    ::
         ::.................................................::
         :: SCC energy              -151.518140457297 Eh    ::
         :: -> isotropic ES            0.766619978506 Eh    ::
         :: -> anisotropic ES          0.001570393568 Eh    ::
         :: -> anisotropic XC          0.037766658740 Eh    ::
         :: -> dispersion             -0.101019260249 Eh    ::
         :: -> Gsolv                  -0.266865910471 Eh    ::
         ::    -> Gelec               -0.219801188304 Eh    ::
         ::    -> Gsasa               -0.042603505980 Eh    ::
         ::    -> Ghb                 -0.009414653764 Eh    ::
         ::    -> Gshift               0.004953437577 Eh    ::
         :: repulsion energy           1.818512842102 Eh    ::
         :: add. restraining           0.000000000000 Eh    ::
         :: total charge              -2.000000000000 e     ::
         :::::::::::::::::::::::::::::::::::::::::::::::::::::

           -------------------------------------------------
          |                Property Printout                |
           -------------------------------------------------

    * Orbital Energies and Occupations

         #    Occupation            Energy/Eh            Energy/eV
      -------------------------------------------------------------
         1        2.0000           -0.6830119             -18.5857
       ...           ...                  ...                  ...
       119        2.0000           -0.3591408              -9.7727
       120        2.0000           -0.3569000              -9.7117
       121        2.0000           -0.3551474              -9.6641
       122        2.0000           -0.3514484              -9.5634
       123        2.0000           -0.3505185              -9.5381
       124        2.0000           -0.3347874              -9.1100
       125        2.0000           -0.3315078              -9.0208
       126        2.0000           -0.3171334              -8.6296
       127        2.0000           -0.3115757              -8.4784
       128        2.0000           -0.3072766              -8.3614
       129        2.0000           -0.2784643              -7.5774
       130        2.0000           -0.2699985              -7.3470
       131        1.6545           -0.2395541              -6.5186 (HOMO)
       132        0.2304           -0.2361291              -6.4254 (LUMO)
       133        0.1151           -0.2354096              -6.4058
       134                         -0.1881281              -5.1192
       135                         -0.1823077              -4.9608
       136                         -0.1804342              -4.9099
       137                         -0.1784801              -4.8567
       138                         -0.1695125              -4.6127
       139                         -0.1646825              -4.4812
       140                         -0.1136162              -3.0917
       141                         -0.0893612              -2.4316
       142                         -0.0603298              -1.6417
       ...                                ...                  ...
       230                          0.7370581              20.0564
      -------------------------------------------------------------
                  HL-Gap            0.0034250 Eh            0.0932 eV
             Fermi-level           -0.2380660 Eh           -6.4781 eV

     #   Z          covCN         q      C6AA      α(0)
     1   7 N        2.629    -0.373    29.623     8.083
     2   6 C        3.787     0.040    19.909     6.355
     3   6 C        2.764     0.165    24.428     8.094
     4   8 O        0.856    -0.436    22.422     6.349
     5   6 C        3.817    -0.096    22.326     6.725
     6   6 C        2.745     0.295    21.998     7.680
     7   8 O        0.861    -0.507    23.932     6.559
     8   7 N        2.644    -0.277    27.155     7.739
     9   7 N        2.632    -0.371    29.589     8.079
    10   6 C        3.787     0.041    19.898     6.353
    11   6 C        2.756     0.270    22.441     7.757
    12   8 O        0.859    -0.492    23.605     6.514
    13   6 C        3.812    -0.099    22.376     6.733
    14   6 C        2.744     0.287    22.138     7.704
    15   8 O        0.859    -0.488    23.523     6.503
    16   7 N        2.639    -0.294    27.572     7.799
    17   7 N        2.691    -0.160    24.469     7.347
    18   6 C        3.800     0.026    20.140     6.390
    19   6 C        2.759     0.285    22.172     7.711
    20   8 O        0.860    -0.495    23.682     6.525
    21   6 C        3.763    -0.128    22.993     6.835
    22   7 N        2.688    -0.179    24.876     7.407
    23   6 C        3.803     0.029    20.084     6.380
    24   6 C        2.768     0.267    22.498     7.768
    25   8 O        0.860    -0.504    23.877     6.551
    26   6 C        3.816    -0.063    21.691     6.628
    27   6 C        3.090     0.025    27.352     8.572
    28   7 N        1.981    -0.411    31.625     8.340
    29   6 C        3.049    -0.044    29.031     8.837
    30   6 C        2.104    -0.126    34.367     9.472
    31   7 N        2.834    -0.134    23.903     7.261
    32   7 N        2.693    -0.173    24.752     7.389
    33   6 C        3.810     0.026    20.126     6.386
    34   6 C        2.765     0.278    22.302     7.734
    35   8 O        0.860    -0.503    23.840     6.546
    36   6 C        3.817    -0.075    21.919     6.663
    37   6 C        3.849    -0.018    20.857     6.496
    38   6 C        3.761    -0.121    22.865     6.817
    39   6 C        3.754    -0.123    22.907     6.825
    40   7 N        2.693    -0.168    24.625     7.370
    41   6 C        3.801     0.046    19.798     6.335
    42   6 C        2.764     0.193    23.872     8.002
    43   8 O        0.856    -0.393    21.541     6.223
    44   6 C        3.816    -0.089    22.192     6.705
    45   6 C        2.692     0.364    20.818     7.467
    46   8 O        0.857    -0.638    27.072     6.976
    47   8 O        0.857    -0.637    27.055     6.974
    48   1 H        0.860     0.159     1.344     1.816
    49   1 H        0.860     0.151     1.393     1.849
    50   1 H        0.927     0.061     2.190     2.314
    51   1 H        0.929     0.025     2.655     2.548
    52   1 H        0.927     0.079     1.990     2.206
    53   1 H        0.927     0.048     2.347     2.395
    54   1 H        0.861     0.220     1.010     1.574
    55   1 H        0.861     0.231     0.962     1.536
    56   1 H        0.860     0.171     1.268     1.764
    57   1 H        0.860     0.158     1.345     1.817
    58   1 H        0.927     0.029     2.597     2.520
    59   1 H        0.927     0.081     1.966     2.193
    60   1 H        0.927     0.067     2.118     2.276
    61   1 H        0.861     0.219     1.016     1.579
    62   1 H        0.861     0.230     0.967     1.540
    63   1 H        0.861     0.211     1.053     1.607
    64   1 H        0.927     0.081     1.969     2.195
    65   1 H        0.927     0.064     2.152     2.294
    66   1 H        0.926     0.071     2.072     2.251
    67   1 H        0.927     0.059     2.215     2.328
    68   1 H        0.861     0.201     1.100     1.643
    69   1 H        0.927     0.066     2.125     2.279
    70   1 H        0.927     0.041     2.432     2.439
    71   1 H        0.927     0.051     2.308     2.376
    72   1 H        0.929    -0.041     3.870     3.076
    73   1 H        0.861     0.223     0.997     1.564
    74   1 H        0.927     0.066     2.135     2.285
    75   1 H        0.927     0.057     2.230     2.335
    76   1 H        0.927     0.058     2.223     2.331
    77   1 H        0.927     0.040     2.451     2.448
    78   1 H        0.927     0.046     2.376     2.410
    79   1 H        0.927     0.043     2.411     2.428
    80   1 H        0.927     0.050     2.318     2.381
    81   1 H        0.927     0.043     2.413     2.429
    82   1 H        0.927     0.048     2.348     2.396
    83   1 H        0.927     0.036     2.498     2.471
    84   1 H        0.861     0.213     1.044     1.600
    85   1 H        0.927     0.062     2.175     2.306
    86   1 H        0.929     0.046     2.369     2.407
    87   1 H        0.927     0.045     2.384     2.414
    88   1 H        0.927     0.043     2.410     2.428
    89   1 H        0.858     0.127     1.566     1.961

 Mol. C6AA /au·bohr⁶  :      82164.358600
 Mol. C8AA /au·bohr⁸  :    1830610.560705
 Mol. α(0) /au        :        428.966754


Wiberg/Mayer (AO) data.
largest (>0.10) Wiberg bond orders for each atom

 ---------------------------------------------------------------------------
     #   Z sym  total        # sym  WBO       # sym  WBO       # sym  WBO
 ---------------------------------------------------------------------------
     1   7 N    2.992 --     2 C    1.013    49 H    0.963    48 H    0.960
     2   6 C    3.982 --     1 N    1.013     3 C    0.978     5 C    0.962
                            50 H    0.953
     3   6 C    3.704 --     4 O    1.721     2 C    0.978    51 H    0.953
     4   8 O    1.868 --     3 C    1.721
     5   6 C    3.984 --    53 H    0.968     6 C    0.968     2 C    0.962
                            52 H    0.947
     6   6 C    3.944 --     7 O    1.610     8 N    1.333     5 C    0.968
     7   8 O    1.942 --     6 C    1.610     8 N    0.194
     8   7 N    3.414 --     6 C    1.333    54 H    0.933    55 H    0.910
                             7 O    0.194
     9   7 N    2.987 --    10 C    1.018    57 H    0.958    56 H    0.927
    10   6 C    3.988 --     9 N    1.018    13 C    0.970    58 H    0.946
                            11 C    0.941
    11   6 C    3.946 --    12 O    1.647    17 N    1.297    10 C    0.941
    12   8 O    1.956 --    11 C    1.647    17 N    0.197
    13   6 C    3.993 --    14 C    0.975    59 H    0.972    10 C    0.970
                            60 H    0.964
    14   6 C    3.945 --    15 O    1.663    16 N    1.284    13 C    0.975
    15   8 O    1.954 --    14 C    1.663    16 N    0.195
    16   7 N    3.374 --    14 C    1.284    61 H    0.935    62 H    0.927
                            15 O    0.195
    17   7 N    3.471 --    11 C    1.297    18 C    0.986    63 H    0.908
                            12 O    0.197
    18   6 C    3.970 --    21 C    0.991    17 N    0.986    64 H    0.947
                            19 C    0.938
    19   6 C    3.945 --    20 O    1.642    22 N    1.288    18 C    0.938
    20   8 O    1.954 --    19 C    1.642    22 N    0.191
    21   6 C    3.987 --    18 C    0.991    66 H    0.982    65 H    0.982
                            67 H    0.981
    22   7 N    3.456 --    19 C    1.288    23 C    0.968    68 H    0.932
                            20 O    0.191
    23   6 C    3.961 --    26 C    0.970    22 N    0.968    24 C    0.949
                            69 H    0.943
    24   6 C    3.951 --    25 O    1.621    32 N    1.312    23 C    0.949
    25   8 O    1.930 --    24 C    1.621    32 N    0.199
    26   6 C    3.987 --    27 C    1.005    71 H    0.974    23 C    0.970
                            70 H    0.966
    27   6 C    3.943 --    29 C    1.569    28 N    1.245    26 C    1.005
    28   7 N    2.925 --    30 C    1.505    27 C    1.245
    29   6 C    3.912 --    27 C    1.569    31 N    1.154    72 H    0.971
                            30 C    0.115
    30   6 C    2.932 --    28 N    1.505    31 N    1.265    29 C    0.115
    31   7 N    3.510 --    30 C    1.265    29 C    1.154    89 H    0.948
    32   7 N    3.473 --    24 C    1.312    33 C    0.974    73 H    0.899
                            25 O    0.199
    33   6 C    3.968 --    36 C    0.978    32 N    0.974    74 H    0.951
                            34 C    0.940
    34   6 C    3.948 --    35 O    1.613    40 N    1.316    33 C    0.940
    35   8 O    1.940 --    34 C    1.613    40 N    0.195
    36   6 C    3.987 --    37 C    0.993    33 C    0.978    75 H    0.973
                            76 H    0.973
    37   6 C    3.993 --    38 C    1.007    39 C    1.004    36 C    0.993
                            77 H    0.970
    38   6 C    3.994 --    37 C    1.007    78 H    0.987    80 H    0.986
                            79 H    0.986
    39   6 C    3.996 --    37 C    1.004    81 H    0.989    82 H    0.987
                            83 H    0.985
    40   7 N    3.480 --    34 C    1.316    41 C    0.967    84 H    0.923
                            35 O    0.195
    41   6 C    3.966 --    40 N    0.967    44 C    0.967    42 C    0.963
                            85 H    0.961
    42   6 C    3.798 --    43 O    1.821    41 C    0.963    86 H    0.955
    43   8 O    1.944 --    42 C    1.821
    44   6 C    3.978 --    87 H    0.974    88 H    0.970    41 C    0.967
                            45 C    0.933
    45   6 C    3.946 --    47 O    1.495    46 O    1.495    44 C    0.933
    46   8 O    1.790 --    45 C    1.495    47 O    0.228
    47   8 O    1.791 --    45 C    1.495    46 O    0.228
    48   1 H    0.974 --     1 N    0.960
    49   1 H    0.977 --     1 N    0.963
    50   1 H    0.994 --     2 C    0.953
    51   1 H    0.999 --     3 C    0.953
    52   1 H    0.994 --     5 C    0.947
    53   1 H    0.997 --     5 C    0.968
    54   1 H    0.952 --     8 N    0.933
    55   1 H    0.946 --     8 N    0.910
    56   1 H    0.970 --     9 N    0.927
    57   1 H    0.975 --     9 N    0.958
    58   1 H    0.999 --    10 C    0.946
    59   1 H    0.993 --    13 C    0.972
    60   1 H    0.995 --    13 C    0.964
    61   1 H    0.952 --    16 N    0.935
    62   1 H    0.947 --    16 N    0.927
    63   1 H    0.956 --    17 N    0.908
    64   1 H    0.993 --    18 C    0.947
    65   1 H    0.996 --    21 C    0.982
    66   1 H    0.995 --    21 C    0.982
    67   1 H    0.996 --    21 C    0.981
    68   1 H    0.959 --    22 N    0.932
    69   1 H    0.995 --    23 C    0.943
    70   1 H    0.997 --    26 C    0.966
    71   1 H    0.997 --    26 C    0.974
    72   1 H    0.998 --    29 C    0.971
    73   1 H    0.950 --    32 N    0.899
    74   1 H    0.996 --    33 C    0.951
    75   1 H    0.996 --    36 C    0.973
    76   1 H    0.997 --    36 C    0.973
    77   1 H    0.998 --    37 C    0.970
    78   1 H    0.998 --    38 C    0.987
    79   1 H    0.998 --    38 C    0.986
    80   1 H    0.997 --    38 C    0.986
    81   1 H    0.998 --    39 C    0.989
    82   1 H    0.998 --    39 C    0.987
    83   1 H    0.999 --    39 C    0.985
    84   1 H    0.955 --    40 N    0.923
    85   1 H    0.996 --    41 C    0.961
    86   1 H    0.998 --    42 C    0.955
    87   1 H    0.998 --    44 C    0.974
    88   1 H    0.998 --    44 C    0.970
    89   1 H    0.984 --    31 N    0.948
 ---------------------------------------------------------------------------

Topologies differ in total number of bonds
Writing topology from bond orders to xtbtopo.mol

molecular dipole:
                 x           y           z       tot (Debye)
 q only:      -71.455     -57.881    -132.087
   full:      -71.796     -58.052    -133.699     412.986
molecular quadrupole (traceless):
                xx          xy          yy          xz          yz          zz
 q only:     2568.574   -3296.593    3921.918   -7187.283   -5844.054   -6490.491
  q+dip:     2644.222   -3328.326    4033.859   -7320.522   -5970.067   -6678.081
   full:     2645.733   -3329.893    4034.569   -7320.564   -5968.073   -6680.303


           -------------------------------------------------
          | TOTAL ENERGY             -149.699627615195 Eh   |
          | GRADIENT NORM               0.208892246064 Eh/α |
          | HOMO-LUMO GAP               0.093200238923 eV   |
           -------------------------------------------------
########################################################################
[WARNING] Runtime exception occurred
-2- restart_readRestart: Dimension missmatch in restart file.
-1- restart_readRestart: Number of electron missmatch in restart file.
########################################################################

------------------------------------------------------------------------
 * finished run on 2025/05/05 at 17:00:46.832     
------------------------------------------------------------------------
 total:
 * wall-time:     0 d,  0 h,  0 min,  0.372 sec
 *  cpu-time:     0 d,  0 h,  0 min,  8.563 sec
 * ratio c/w:    23.032 speedup
 SCF:
 * wall-time:     0 d,  0 h,  0 min,  0.363 sec
 *  cpu-time:     0 d,  0 h,  0 min,  8.407 sec
 * ratio c/w:    23.140 speedup

