      -----------------------------------------------------------      
     |                   =====================                   |     
     |                           x T B                           |     
     |                   =====================                   |     
     |                         S. Grimme                         |     
     |          Mulliken Center for Theoretical Chemistry        |     
     |                    University of Bonn                     |     
      -----------------------------------------------------------      

   * xtb version 6.7.1 (edcfbbe) compiled by 'conda@afd1a870197c' on 2025-04-11

   xtb is free software: you can redistribute it and/or modify it under
   the terms of the GNU Lesser General Public License as published by
   the Free Software Foundation, either version 3 of the License, or
   (at your option) any later version.
   
   xtb is distributed in the hope that it will be useful,
   but WITHOUT ANY WARRANTY; without even the implied warranty of
   MERCHANTABILITY or FITNESS FOR A PARTICULAR PURPOSE.  See the
   GNU Lesser General Public License for more details.
   
   Cite this work as:
   * C. Bannwarth, E. Caldeweyher, S. Ehlert, A. Hansen, P. Pracht,
     J. Seibert, S. Spicher, S. Grimme, WIREs Comput. Mol. Sci., 2020, 11,
     e01493. DOI: 10.1002/wcms.1493
   
   for GFN2-xTB:
   * C. Bannwarth, S. Ehlert and S. Grimme., J. Chem. Theory Comput., 2019,
     15, 1652-1671. DOI: 10.1021/acs.jctc.8b01176
   for GFN1-xTB:
   * S. Grimme, C. Bannwarth, P. Shushkov, J. Chem. Theory Comput., 2017,
     13, 1989-2009. DOI: 10.1021/acs.jctc.7b00118
   for GFN0-xTB:
   * P. Pracht, E. Caldeweyher, S. Ehlert, S. Grimme, ChemRxiv, 2019, preprint.
     DOI: 10.26434/chemrxiv.8326202.v1
   for GFN-FF:
   * S. Spicher and S. Grimme, Angew. Chem. Int. Ed., 2020, 59, 15665-15673.
     DOI: 10.1002/anie.202004239
   
   for ALPB and GBSA implicit solvation:
   * S. Ehlert, M. Stahn, S. Spicher, S. Grimme, J. Chem. Theory Comput.,
     2021, 17, 4250-4261. DOI: 10.1021/acs.jctc.1c00471
   
   for ddCOSMO and CPCM-X implicit solvation:
   * M. Stahn, S. Ehlert, S. Grimme, J. Phys. Chem. A,
     2023, XX, XXXX-XXXX. DOI: 10.1021/acs.jpca.3c04382
   
   for DFT-D4:
   * E. Caldeweyher, C. Bannwarth and S. Grimme, J. Chem. Phys., 2017,
     147, 034112. DOI: 10.1063/1.4993215
   * E. Caldeweyher, S. Ehlert, A. Hansen, H. Neugebauer, S. Spicher,
     C. Bannwarth and S. Grimme, J. Chem. Phys., 2019, 150, 154122.
     DOI: 10.1063/1.5090222
   * E. Caldeweyher, J.-M. Mewes, S. Ehlert and S. Grimme, Phys. Chem. Chem. Phys.
     2020, 22, 8499-8512. DOI: 10.1039/D0CP00502A
   
   for sTDA-xTB:
   * S. Grimme and C. Bannwarth, J. Chem. Phys., 2016, 145, 054103.
     DOI: 10.1063/1.4959605
   
   in the mass-spec context:
   * V. Asgeirsson, C. Bauer and S. Grimme, Chem. Sci., 2017, 8, 4879.
     DOI: 10.1039/c7sc00601b
   * J. Koopman and S. Grimme, ACS Omega 2019, 4, 12, 15120-15133.
     DOI: 10.1021/acsomega.9b02011
   
   for metadynamics refer to:
   * S. Grimme, J. Chem. Theory Comput., 2019, 155, 2847-2862
     DOI: 10.1021/acs.jctc.9b00143
   
   for SPH calculations refer to:
   * S. Spicher and S. Grimme, J. Chem. Theory Comput., 2021, 17, 1701-1714
     DOI: 10.1021/acs.jctc.0c01306
   
   for ONIOM refer to:
   * C. Plett, A. Katbashev, S. Ehlert, S. Grimme, M. Bursch,
     Phys. Chem. Chem. Phys., 2023, 25, 17860-17868. DOI: 10.1039/D3CP02178E
   
   for DIPRO refer to:
   * J. Kohn, N. Gildemeister, S. Grimme, D. Fazzi, A. Hansen,
     J. Chem. Phys., 2023, just accepted.
   
   for PTB refer to:
   * S. Grimme, M. Mueller, A. Hansen, J. Chem. Phys., 2023, 158, 124111.
     DOI: 10.1063/5.0137838
   
   with help from (in alphabetical order)
   P. Atkinson, C. Bannwarth, F. Bohle, G. Brandenburg, E. Caldeweyher
   M. Checinski, S. Dohm, S. Ehlert, S. Ehrlich, I. Gerasimov, C. Hölzer
   A. Katbashev, J. Kohn, J. Koopman, C. Lavigne, S. Lehtola, F. März, M. Müller,
   F. Musil, H. Neugebauer, J. Pisarek, C. Plett, P. Pracht, F. Pultar,
   J. Seibert, P. Shushkov, S. Spicher, M. Stahn, M. Steiner, T. Strunk,
   J. Stückrath, T. Rose, and J. Unsleber
   
 * started run on 2025/05/05 at 16:53:38.843     
   ID    Z sym.   atoms
    1    7 N      1, 8, 9, 16, 17, 22, 28, 31, 32, 40
    2    6 C      2, 3, 5, 6, 10, 11, 13, 14, 18, 19, 21, 23, 24, 26, 27, 29,
                  30, 33, 34, 36-39, 41, 42, 44, 45
    3    8 O      4, 7, 12, 15, 20, 25, 35, 43, 46, 47
    4    1 H      48-89

           -------------------------------------------------
          |                Calculation Setup                |
           -------------------------------------------------

          program call               : xtb /tmp/tmpp0dgvqfo/HID/input.xyz --alpb ether --chrg -2 --input /tmp/tmpp0dgvqfo/HID/constraints.inp --gfn 2
          hostname                   : fedora
          coordinate file            : /tmp/tmpp0dgvqfo/HID/input.xyz
          omp threads                :                    32


molecular fragmentation (1/2 indicates fragments):
111111112222222222222222222222222222222222222221111111122222222222222222
22222222222222222
# atoms in fragment 1/2:    16    73
 fragment masses (1/2) :      116.12      550.57
CMA distance (Bohr)    :   7.547
constraining FC (au)   :  0.0500
########################################################################
[WARNING] Please study the warnings concerning your input carefully
-1- readin_getIntValue: could not parse 'S'
########################################################################

           -------------------------------------------------
          |                 G F N 2 - x T B                 |
           -------------------------------------------------

        Reference                      10.1021/acs.jctc.8b01176
      * Hamiltonian:
        H0-scaling (s, p, d)           1.850000    2.230000    2.230000
        zeta-weighting                 0.500000
      * Dispersion:
        s8                             2.700000
        a1                             0.520000
        a2                             5.000000
        s9                             5.000000
      * Repulsion:
        kExp                           1.500000    1.000000
        rExp                           1.000000
      * Coulomb:
        alpha                          2.000000
        third order                    shell-resolved
        anisotropic                    true
        a3                             3.000000
        a5                             4.000000
        cn-shift                       1.200000
        cn-exp                         4.000000
        max-rad                        5.000000

      * Solvation model:               ALPB
        Solvent                        ether
        Parameter file                 internal GFN2-xTB/ALPB
        Dielectric constant                4.3300E+00
        Reference state                gsolv [1 M gas/solution]
        Free energy shift                  4.9534E-03 Eh       3.1083E+00 kcal/mol
        Temperature                        2.9815E+02 K
        Density                            7.1300E-01 kg/L
        Solvent mass                       7.4120E+01 g/mol
        Interaction kernel             P16
        Born radius scaling (c1)           1.5847E+00
        Born radii integrator          GBOBC
        Born offset                        0.0000E+00 a0       0.0000E+00 AA
        H-bond correction              true
        Ion screening                  false
        Surface tension                    1.0000E-05 Eh       1.5569E+01 dyn/cm
        Grid points                               230 per atom

          ...................................................
          :                      SETUP                      :
          :.................................................:
          :  # basis functions                 230          :
          :  # atomic orbitals                 230          :
          :  # shells                          136          :
          :  # electrons                       262          :
          :  max. iterations                   250          :
          :  Hamiltonian                  GFN2-xTB          :
          :  restarted?                      false          :
          :  GBSA solvation                   true          :
          :  PC potential                    false          :
          :  electronic temp.          300.0000000     K    :
          :  accuracy                    1.0000000          :
          :  -> integral cutoff          0.2500000E+02      :
          :  -> integral neglect         0.1000000E-07      :
          :  -> SCF convergence          0.1000000E-05 Eh   :
          :  -> wf. convergence          0.1000000E-03 e    :
          :  Broyden damping             0.4000000          :
          :  net charge                         -2          :
          :  unpaired electrons                  0          :
          ...................................................

 iter      E             dE          RMSdq      gap      omega  full diag
   1   -150.7881333 -0.150788E+03  0.485E+00    2.46       0.0  T
   2   -150.4129967  0.375137E+00  0.353E+00    0.07       1.0  T
   3   -151.1633457 -0.750349E+00  0.249E+00    1.68       1.0  T
   4   -151.4266729 -0.263327E+00  0.134E+00    1.30       1.0  T
   5   -150.7857057  0.640967E+00  0.233E+00    0.14       1.0  T
   6   -151.4340469 -0.648341E+00  0.884E-01    1.34       1.0  T
   7   -151.4537665 -0.197196E-01  0.643E-01    0.54       1.0  T
   8   -151.3164767  0.137290E+00  0.119E+00    0.00       1.0  T
   9   -151.4485016 -0.132025E+00  0.668E-01    0.85       1.0  T
  10   -151.4512908 -0.278919E-02  0.627E-01    0.62       1.0  T
  11   -151.4551190 -0.382817E-02  0.577E-01    0.40       1.0  T
  12   -151.4588898 -0.377078E-02  0.538E-01    0.27       1.0  T
  13   -150.7575510  0.701339E+00  0.234E+00    0.14       1.0  T
  14   -151.4626435 -0.705092E+00  0.494E-01    0.23       1.0  T
  15   -151.4879044 -0.252610E-01  0.226E-01    0.08       1.0  T
  16   -151.4852073  0.269719E-02  0.259E-01    0.07       1.0  T
  17   -151.4791969  0.601033E-02  0.329E-01    0.06       1.0  T
  18   -151.4899800 -0.107831E-01  0.147E-01    0.07       1.0  T
  19   -151.4367079  0.532721E-01  0.658E-01    0.04       1.0  T
  20   -151.4882927 -0.515848E-01  0.207E-01    0.08       1.0  T
  21   -151.4889284 -0.635673E-03  0.183E-01    0.09       1.0  T
  22   -151.4914351 -0.250674E-02  0.105E-01    0.09       1.0  T
  23   -151.4917909 -0.355847E-03  0.883E-02    0.09       1.0  T
  24   -151.4917301  0.608508E-04  0.909E-02    0.09       1.0  T
  25   -151.4924231 -0.693012E-03  0.493E-02    0.09       1.0  T
  26   -151.4924572 -0.340570E-04  0.460E-02    0.09       1.0  T
  27   -151.4926627 -0.205492E-03  0.202E-02    0.09       1.0  T
  28   -151.4926802 -0.175938E-04  0.159E-02    0.09       1.0  T
  29   -151.4927076 -0.273079E-04  0.527E-03    0.09       2.0  T
  30   -151.4927092 -0.163527E-05  0.361E-03    0.09       2.9  T
  31   -151.4927108 -0.155913E-05  0.512E-04    0.09      20.7  T
  32   -151.4927107  0.185174E-07  0.660E-04    0.09      16.1  T
  33   -151.4927108 -0.543106E-07  0.346E-05    0.09     306.5  T

   *** convergence criteria satisfied after 33 iterations ***

         #    Occupation            Energy/Eh            Energy/eV
      -------------------------------------------------------------
         1        2.0000           -0.6778984             -18.4466
       ...           ...                  ...                  ...
       125        2.0000           -0.3341736              -9.0933
       126        2.0000           -0.3221039              -8.7649
       127        2.0000           -0.3153040              -8.5799
       128        2.0000           -0.3108281              -8.4581
       129        2.0000           -0.2778395              -7.5604
       130        2.0000           -0.2704003              -7.3580
       131        1.6368           -0.2387844              -6.4977 (HOMO)
       132        0.2393           -0.2354580              -6.4071 (LUMO)
       133        0.1239           -0.2347727              -6.3885
       134                         -0.1970987              -5.3633
       135                         -0.1897378              -5.1630
       136                         -0.1876281              -5.1056
       ...                                ...                  ...
       230                          0.7305852              19.8802
      -------------------------------------------------------------
                  HL-Gap            0.0033264 Eh            0.0905 eV
             Fermi-level           -0.2373541 Eh           -6.4587 eV

 SCC (total)                   0 d,  0 h,  0 min,  0.592 sec
 SCC setup                      ...        0 min,  0.001 sec (  0.136%)
 Dispersion                     ...        0 min,  0.001 sec (  0.220%)
 classical contributions        ...        0 min,  0.000 sec (  0.014%)
 integral evaluation            ...        0 min,  0.004 sec (  0.620%)
 iterations                     ...        0 min,  0.580 sec ( 97.970%)
 molecular gradient             ...        0 min,  0.006 sec (  0.999%)
 printout                       ...        0 min,  0.000 sec (  0.039%)

         :::::::::::::::::::::::::::::::::::::::::::::::::::::
         ::                     SUMMARY                     ::
         :::::::::::::::::::::::::::::::::::::::::::::::::::::
         :: total energy            -149.699724663676 Eh    ::
         :: total w/o Gsasa/hb      -149.654071994296 Eh    ::
         :: gradient norm              0.215553884539 Eh/a0 ::
         :: HOMO-LUMO gap              0.090515765979 eV    ::
         ::.................................................::
         :: SCC energy              -151.488797842768 Eh    ::
         :: -> isotropic ES            0.766552359959 Eh    ::
         :: -> anisotropic ES          0.003242840332 Eh    ::
         :: -> anisotropic XC          0.040543571674 Eh    ::
         :: -> dispersion             -0.102280248149 Eh    ::
         :: -> Gsolv                  -0.265584554450 Eh    ::
         ::    -> Gelec               -0.219931885070 Eh    ::
         ::    -> Gsasa               -0.041464732195 Eh    ::
         ::    -> Ghb                 -0.009141374762 Eh    ::
         ::    -> Gshift               0.004953437577 Eh    ::
         :: repulsion energy           1.789073179092 Eh    ::
         :: add. restraining           0.000000000000 Eh    ::
         :: total charge              -2.000000000000 e     ::
         :::::::::::::::::::::::::::::::::::::::::::::::::::::

           -------------------------------------------------
          |                Property Printout                |
           -------------------------------------------------

    * Orbital Energies and Occupations

         #    Occupation            Energy/Eh            Energy/eV
      -------------------------------------------------------------
         1        2.0000           -0.6778984             -18.4466
       ...           ...                  ...                  ...
       119        2.0000           -0.3577789              -9.7357
       120        2.0000           -0.3577129              -9.7339
       121        2.0000           -0.3557110              -9.6794
       122        2.0000           -0.3529086              -9.6031
       123        2.0000           -0.3470086              -9.4426
       124        2.0000           -0.3363774              -9.1533
       125        2.0000           -0.3341736              -9.0933
       126        2.0000           -0.3221039              -8.7649
       127        2.0000           -0.3153040              -8.5799
       128        2.0000           -0.3108281              -8.4581
       129        2.0000           -0.2778395              -7.5604
       130        2.0000           -0.2704003              -7.3580
       131        1.6368           -0.2387844              -6.4977 (HOMO)
       132        0.2393           -0.2354580              -6.4071 (LUMO)
       133        0.1239           -0.2347727              -6.3885
       134                         -0.1970987              -5.3633
       135                         -0.1897378              -5.1630
       136                         -0.1876281              -5.1056
       137                         -0.1811068              -4.9282
       138                         -0.1764486              -4.8014
       139                         -0.1655948              -4.5061
       140                         -0.1134663              -3.0876
       141                         -0.0916099              -2.4928
       142                         -0.0589728              -1.6047
       ...                                ...                  ...
       230                          0.7305852              19.8802
      -------------------------------------------------------------
                  HL-Gap            0.0033264 Eh            0.0905 eV
             Fermi-level           -0.2373541 Eh           -6.4587 eV

     #   Z          covCN         q      C6AA      α(0)
     1   7 N        2.632    -0.369    29.533     8.071
     2   6 C        3.785     0.044    19.849     6.346
     3   6 C        2.764     0.161    24.507     8.107
     4   8 O        0.856    -0.444    22.576     6.370
     5   6 C        3.811    -0.098    22.353     6.730
     6   6 C        2.742     0.286    22.145     7.705
     7   8 O        0.859    -0.515    24.108     6.583
     8   7 N        2.640    -0.274    27.099     7.731
     9   7 N        2.629    -0.371    29.578     8.077
    10   6 C        3.788     0.039    19.936     6.359
    11   6 C        2.756     0.272    22.405     7.751
    12   8 O        0.859    -0.495    23.684     6.525
    13   6 C        3.813    -0.097    22.346     6.728
    14   6 C        2.744     0.286    22.145     7.705
    15   8 O        0.859    -0.488    23.515     6.502
    16   7 N        2.640    -0.291    27.497     7.788
    17   7 N        2.691    -0.161    24.476     7.348
    18   6 C        3.802     0.028    20.094     6.382
    19   6 C        2.757     0.279    22.284     7.730
    20   8 O        0.859    -0.493    23.637     6.518
    21   6 C        3.763    -0.129    23.011     6.838
    22   7 N        2.690    -0.180    24.905     7.412
    23   6 C        3.799     0.026    20.132     6.389
    24   6 C        2.753     0.260    22.617     7.788
    25   8 O        0.858    -0.502    23.829     6.545
    26   6 C        3.810    -0.063    21.700     6.631
    27   6 C        3.088    -0.014    28.267     8.715
    28   7 N        2.843    -0.136    23.936     7.266
    29   6 C        3.052     0.002    27.935     8.668
    30   6 C        2.104    -0.114    34.029     9.426
    31   7 N        1.979    -0.398    31.260     8.292
    32   7 N        2.691    -0.169    24.667     7.376
    33   6 C        3.799     0.028    20.112     6.385
    34   6 C        2.762     0.275    22.358     7.744
    35   8 O        0.859    -0.505    23.896     6.554
    36   6 C        3.820    -0.081    22.036     6.680
    37   6 C        3.853    -0.013    20.767     6.481
    38   6 C        3.768    -0.120    22.841     6.811
    39   6 C        3.761    -0.122    22.882     6.819
    40   7 N        2.692    -0.165    24.559     7.360
    41   6 C        3.797     0.042    19.868     6.347
    42   6 C        2.763     0.197    23.802     7.990
    43   8 O        0.856    -0.410    21.890     6.273
    44   6 C        3.812    -0.093    22.257     6.715
    45   6 C        2.690     0.363    20.841     7.471
    46   8 O        0.857    -0.641    27.136     6.984
    47   8 O        0.857    -0.630    26.875     6.950
    48   1 H        0.860     0.162     1.324     1.803
    49   1 H        0.860     0.151     1.394     1.849
    50   1 H        0.927     0.056     2.244     2.343
    51   1 H        0.929     0.026     2.638     2.540
    52   1 H        0.927     0.068     2.109     2.271
    53   1 H        0.927     0.057     2.237     2.339
    54   1 H        0.861     0.220     1.008     1.572
    55   1 H        0.861     0.234     0.949     1.526
    56   1 H        0.860     0.162     1.324     1.802
    57   1 H        0.860     0.161     1.329     1.806
    58   1 H        0.927     0.039     2.466     2.456
    59   1 H        0.927     0.080     1.983     2.202
    60   1 H        0.927     0.067     2.123     2.278
    61   1 H        0.861     0.220     1.011     1.575
    62   1 H        0.861     0.231     0.961     1.535
    63   1 H        0.861     0.211     1.054     1.608
    64   1 H        0.927     0.076     2.016     2.220
    65   1 H        0.927     0.064     2.152     2.294
    66   1 H        0.927     0.074     2.037     2.232
    67   1 H        0.926     0.059     2.212     2.326
    68   1 H        0.861     0.201     1.099     1.642
    69   1 H        0.927     0.070     2.089     2.260
    70   1 H        0.927     0.044     2.402     2.423
    71   1 H        0.927     0.038     2.473     2.459
    72   1 H        0.929    -0.040     3.863     3.073
    73   1 H        0.861     0.221     1.004     1.570
    74   1 H        0.927     0.061     2.187     2.312
    75   1 H        0.927     0.059     2.216     2.328
    76   1 H        0.927     0.072     2.066     2.248
    77   1 H        0.927     0.038     2.480     2.463
    78   1 H        0.927     0.045     2.383     2.414
    79   1 H        0.927     0.043     2.409     2.427
    80   1 H        0.927     0.050     2.314     2.379
    81   1 H        0.927     0.042     2.416     2.430
    82   1 H        0.927     0.046     2.371     2.408
    83   1 H        0.927     0.034     2.532     2.488
    84   1 H        0.861     0.213     1.041     1.598
    85   1 H        0.926     0.067     2.119     2.276
    86   1 H        0.929     0.051     2.311     2.377
    87   1 H        0.926     0.048     2.350     2.397
    88   1 H        0.927     0.049     2.328     2.386
    89   1 H        0.858     0.125     1.583     1.971

 Mol. C6AA /au·bohr⁶  :      82134.443628
 Mol. C8AA /au·bohr⁸  :    1830151.380996
 Mol. α(0) /au        :        428.873474


Wiberg/Mayer (AO) data.
largest (>0.10) Wiberg bond orders for each atom

 ---------------------------------------------------------------------------
     #   Z sym  total        # sym  WBO       # sym  WBO       # sym  WBO
 ---------------------------------------------------------------------------
     1   7 N    2.994 --     2 C    1.018    49 H    0.961    48 H    0.957
     2   6 C    3.984 --     1 N    1.018     3 C    0.976     5 C    0.963
                            50 H    0.954
     3   6 C    3.695 --     4 O    1.717     2 C    0.976    51 H    0.953
     4   8 O    1.852 --     3 C    1.717
     5   6 C    3.984 --     6 C    0.966     2 C    0.963    53 H    0.962
                            52 H    0.956
     6   6 C    3.942 --     7 O    1.601     8 N    1.342     5 C    0.966
     7   8 O    1.923 --     6 C    1.601     8 N    0.193
     8   7 N    3.420 --     6 C    1.342    54 H    0.934    55 H    0.904
                             7 O    0.193
     9   7 N    2.981 --    10 C    1.009    57 H    0.959    56 H    0.941
    10   6 C    3.986 --     9 N    1.009    13 C    0.973    58 H    0.946
                            11 C    0.944
    11   6 C    3.946 --    12 O    1.642    17 N    1.297    10 C    0.944
    12   8 O    1.950 --    11 C    1.642    17 N    0.195
    13   6 C    3.993 --    10 C    0.973    59 H    0.972    14 C    0.971
                            60 H    0.965
    14   6 C    3.946 --    15 O    1.662    16 N    1.290    13 C    0.971
    15   8 O    1.955 --    14 C    1.662    16 N    0.197
    16   7 N    3.379 --    14 C    1.290    61 H    0.934    62 H    0.926
                            15 O    0.197
    17   7 N    3.468 --    11 C    1.297    18 C    0.984    63 H    0.911
                            12 O    0.195
    18   6 C    3.971 --    21 C    0.993    17 N    0.984    64 H    0.947
                            19 C    0.940
    19   6 C    3.946 --    20 O    1.646    22 N    1.283    18 C    0.940
    20   8 O    1.953 --    19 C    1.646    22 N    0.190
    21   6 C    3.987 --    18 C    0.993    66 H    0.981    65 H    0.981
                            67 H    0.979
    22   7 N    3.453 --    19 C    1.283    23 C    0.971    68 H    0.930
                            20 O    0.190
    23   6 C    3.960 --    22 N    0.971    26 C    0.969    69 H    0.946
                            24 C    0.938
    24   6 C    3.950 --    25 O    1.623    32 N    1.317    23 C    0.938
    25   8 O    1.932 --    24 C    1.623    32 N    0.201
    26   6 C    3.990 --    27 C    1.002    71 H    0.975    70 H    0.969
                            23 C    0.969
    27   6 C    3.909 --    29 C    1.568    28 N    1.138    26 C    1.002
                            30 C    0.109
    28   7 N    3.510 --    30 C    1.272    27 C    1.138    89 H    0.947
    29   6 C    3.944 --    27 C    1.568    31 N    1.262    72 H    0.971
    30   6 C    2.935 --    31 N    1.501    28 N    1.272    27 C    0.109
    31   7 N    2.928 --    30 C    1.501    29 C    1.262
    32   7 N    3.479 --    24 C    1.317    33 C    0.972    73 H    0.905
                            25 O    0.201
    33   6 C    3.965 --    36 C    0.976    32 N    0.972    74 H    0.954
                            34 C    0.939
    34   6 C    3.948 --    35 O    1.602    40 N    1.326    33 C    0.939
    35   8 O    1.939 --    34 C    1.602    40 N    0.196
    36   6 C    3.981 --    37 C    0.989    33 C    0.976    75 H    0.972
                            76 H    0.969
    37   6 C    3.994 --    38 C    1.008    39 C    1.008    36 C    0.989
                            77 H    0.970
    38   6 C    3.994 --    37 C    1.008    79 H    0.986    78 H    0.985
                            80 H    0.985
    39   6 C    3.996 --    37 C    1.008    81 H    0.987    82 H    0.986
                            83 H    0.986
    40   7 N    3.487 --    34 C    1.326    41 C    0.966    84 H    0.923
                            35 O    0.196
    41   6 C    3.962 --    44 C    0.973    42 C    0.970    40 N    0.966
                            85 H    0.956
    42   6 C    3.787 --    43 O    1.801    41 C    0.970    86 H    0.955
    43   8 O    1.928 --    42 C    1.801
    44   6 C    3.976 --    41 C    0.973    87 H    0.969    88 H    0.961
                            45 C    0.931
    45   6 C    3.945 --    47 O    1.500    46 O    1.493    44 C    0.931
    46   8 O    1.792 --    45 C    1.493    47 O    0.223
    47   8 O    1.796 --    45 C    1.500    46 O    0.223
    48   1 H    0.973 --     1 N    0.957
    49   1 H    0.977 --     1 N    0.961
    50   1 H    0.995 --     2 C    0.954
    51   1 H    0.999 --     3 C    0.953
    52   1 H    0.995 --     5 C    0.956
    53   1 H    0.997 --     5 C    0.962
    54   1 H    0.951 --     8 N    0.934
    55   1 H    0.944 --     8 N    0.904
    56   1 H    0.973 --     9 N    0.941
    57   1 H    0.974 --     9 N    0.959
    58   1 H    0.998 --    10 C    0.946
    59   1 H    0.994 --    13 C    0.972
    60   1 H    0.995 --    13 C    0.965
    61   1 H    0.952 --    16 N    0.934
    62   1 H    0.947 --    16 N    0.926
    63   1 H    0.956 --    17 N    0.911
    64   1 H    0.994 --    18 C    0.947
    65   1 H    0.996 --    21 C    0.981
    66   1 H    0.994 --    21 C    0.981
    67   1 H    0.996 --    21 C    0.979
    68   1 H    0.959 --    22 N    0.930
    69   1 H    0.995 --    23 C    0.946
    70   1 H    0.997 --    26 C    0.969
    71   1 H    0.998 --    26 C    0.975
    72   1 H    0.997 --    29 C    0.971
    73   1 H    0.951 --    32 N    0.905
    74   1 H    0.996 --    33 C    0.954
    75   1 H    0.996 --    36 C    0.972
    76   1 H    0.995 --    36 C    0.969
    77   1 H    0.999 --    37 C    0.970
    78   1 H    0.998 --    38 C    0.985
    79   1 H    0.998 --    38 C    0.986
    80   1 H    0.997 --    38 C    0.985
    81   1 H    0.998 --    39 C    0.987
    82   1 H    0.998 --    39 C    0.986
    83   1 H    0.999 --    39 C    0.986
    84   1 H    0.954 --    40 N    0.923
    85   1 H    0.995 --    41 C    0.956
    86   1 H    0.997 --    42 C    0.955
    87   1 H    0.998 --    44 C    0.969
    88   1 H    0.997 --    44 C    0.961
    89   1 H    0.984 --    28 N    0.947
 ---------------------------------------------------------------------------

Topologies differ in total number of bonds
Writing topology from bond orders to xtbtopo.mol

molecular dipole:
                 x           y           z       tot (Debye)
 q only:      -75.462     -55.823    -126.922
   full:      -76.053     -56.267    -127.620     403.786
molecular quadrupole (traceless):
                xx          xy          yy          xz          yz          zz
 q only:     1876.398   -3353.333    3842.602   -7265.538   -5388.006   -5719.000
  q+dip:     1875.295   -3416.501    3882.070   -7363.312   -5488.091   -5757.365
   full:     1877.693   -3417.688    3882.078   -7363.002   -5486.252   -5759.771


           -------------------------------------------------
          | TOTAL ENERGY             -149.699724663676 Eh   |
          | GRADIENT NORM               0.215553884539 Eh/α |
          | HOMO-LUMO GAP               0.090515765979 eV   |
           -------------------------------------------------
########################################################################
[WARNING] Runtime exception occurred
-2- restart_readRestart: Dimension missmatch in restart file.
-1- restart_readRestart: Number of electron missmatch in restart file.
########################################################################

------------------------------------------------------------------------
 * finished run on 2025/05/05 at 16:53:39.442     
------------------------------------------------------------------------
 total:
 * wall-time:     0 d,  0 h,  0 min,  0.599 sec
 *  cpu-time:     0 d,  0 h,  0 min, 15.971 sec
 * ratio c/w:    26.646 speedup
 SCF:
 * wall-time:     0 d,  0 h,  0 min,  0.592 sec
 *  cpu-time:     0 d,  0 h,  0 min, 15.817 sec
 * ratio c/w:    26.721 speedup

