      -----------------------------------------------------------      
     |                   =====================                   |     
     |                           x T B                           |     
     |                   =====================                   |     
     |                         S. Grimme                         |     
     |          Mulliken Center for Theoretical Chemistry        |     
     |                    University of Bonn                     |     
      -----------------------------------------------------------      

   * xtb version 6.7.1 (edcfbbe) compiled by 'conda@afd1a870197c' on 2025-04-11

   xtb is free software: you can redistribute it and/or modify it under
   the terms of the GNU Lesser General Public License as published by
   the Free Software Foundation, either version 3 of the License, or
   (at your option) any later version.
   
   xtb is distributed in the hope that it will be useful,
   but WITHOUT ANY WARRANTY; without even the implied warranty of
   MERCHANTABILITY or FITNESS FOR A PARTICULAR PURPOSE.  See the
   GNU Lesser General Public License for more details.
   
   Cite this work as:
   * C. Bannwarth, E. Caldeweyher, S. Ehlert, A. Hansen, P. Pracht,
     J. Seibert, S. Spicher, S. Grimme, WIREs Comput. Mol. Sci., 2020, 11,
     e01493. DOI: 10.1002/wcms.1493
   
   for GFN2-xTB:
   * C. Bannwarth, S. Ehlert and S. Grimme., J. Chem. Theory Comput., 2019,
     15, 1652-1671. DOI: 10.1021/acs.jctc.8b01176
   for GFN1-xTB:
   * S. Grimme, C. Bannwarth, P. Shushkov, J. Chem. Theory Comput., 2017,
     13, 1989-2009. DOI: 10.1021/acs.jctc.7b00118
   for GFN0-xTB:
   * P. Pracht, E. Caldeweyher, S. Ehlert, S. Grimme, ChemRxiv, 2019, preprint.
     DOI: 10.26434/chemrxiv.8326202.v1
   for GFN-FF:
   * S. Spicher and S. Grimme, Angew. Chem. Int. Ed., 2020, 59, 15665-15673.
     DOI: 10.1002/anie.202004239
   
   for ALPB and GBSA implicit solvation:
   * S. Ehlert, M. Stahn, S. Spicher, S. Grimme, J. Chem. Theory Comput.,
     2021, 17, 4250-4261. DOI: 10.1021/acs.jctc.1c00471
   
   for ddCOSMO and CPCM-X implicit solvation:
   * M. Stahn, S. Ehlert, S. Grimme, J. Phys. Chem. A,
     2023, XX, XXXX-XXXX. DOI: 10.1021/acs.jpca.3c04382
   
   for DFT-D4:
   * E. Caldeweyher, C. Bannwarth and S. Grimme, J. Chem. Phys., 2017,
     147, 034112. DOI: 10.1063/1.4993215
   * E. Caldeweyher, S. Ehlert, A. Hansen, H. Neugebauer, S. Spicher,
     C. Bannwarth and S. Grimme, J. Chem. Phys., 2019, 150, 154122.
     DOI: 10.1063/1.5090222
   * E. Caldeweyher, J.-M. Mewes, S. Ehlert and S. Grimme, Phys. Chem. Chem. Phys.
     2020, 22, 8499-8512. DOI: 10.1039/D0CP00502A
   
   for sTDA-xTB:
   * S. Grimme and C. Bannwarth, J. Chem. Phys., 2016, 145, 054103.
     DOI: 10.1063/1.4959605
   
   in the mass-spec context:
   * V. Asgeirsson, C. Bauer and S. Grimme, Chem. Sci., 2017, 8, 4879.
     DOI: 10.1039/c7sc00601b
   * J. Koopman and S. Grimme, ACS Omega 2019, 4, 12, 15120-15133.
     DOI: 10.1021/acsomega.9b02011
   
   for metadynamics refer to:
   * S. Grimme, J. Chem. Theory Comput., 2019, 155, 2847-2862
     DOI: 10.1021/acs.jctc.9b00143
   
   for SPH calculations refer to:
   * S. Spicher and S. Grimme, J. Chem. Theory Comput., 2021, 17, 1701-1714
     DOI: 10.1021/acs.jctc.0c01306
   
   for ONIOM refer to:
   * C. Plett, A. Katbashev, S. Ehlert, S. Grimme, M. Bursch,
     Phys. Chem. Chem. Phys., 2023, 25, 17860-17868. DOI: 10.1039/D3CP02178E
   
   for DIPRO refer to:
   * J. Kohn, N. Gildemeister, S. Grimme, D. Fazzi, A. Hansen,
     J. Chem. Phys., 2023, just accepted.
   
   for PTB refer to:
   * S. Grimme, M. Mueller, A. Hansen, J. Chem. Phys., 2023, 158, 124111.
     DOI: 10.1063/5.0137838
   
   with help from (in alphabetical order)
   P. Atkinson, C. Bannwarth, F. Bohle, G. Brandenburg, E. Caldeweyher
   M. Checinski, S. Dohm, S. Ehlert, S. Ehrlich, I. Gerasimov, C. Hölzer
   A. Katbashev, J. Kohn, J. Koopman, C. Lavigne, S. Lehtola, F. März, M. Müller,
   F. Musil, H. Neugebauer, J. Pisarek, C. Plett, P. Pracht, F. Pultar,
   J. Seibert, P. Shushkov, S. Spicher, M. Stahn, M. Steiner, T. Strunk,
   J. Stückrath, T. Rose, and J. Unsleber
   
 * started run on 2025/05/05 at 16:53:39.457     
   ID    Z sym.   atoms
    1    7 N      1, 8, 9, 16, 17, 22, 28, 31, 32, 40
    2    6 C      2, 3, 5, 6, 10, 11, 13, 14, 18, 19, 21, 23, 24, 26, 27, 29,
                  30, 33, 34, 36-39, 41, 42, 44, 45
    3    8 O      4, 7, 12, 15, 20, 25, 35, 43, 46, 47
    4    1 H      48-89

           -------------------------------------------------
          |                Calculation Setup                |
           -------------------------------------------------

          program call               : xtb /tmp/tmpp0dgvqfo/HIE/input.xyz --alpb ether --chrg -2 --input /tmp/tmpp0dgvqfo/HIE/constraints.inp --gfn 2
          hostname                   : fedora
          coordinate file            : /tmp/tmpp0dgvqfo/HIE/input.xyz
          omp threads                :                    32


molecular fragmentation (1/2 indicates fragments):
111111112222222222222222222222222222222222222221111111122222222222222222
22222222222222222
# atoms in fragment 1/2:    16    73
 fragment masses (1/2) :      116.12      550.57
CMA distance (Bohr)    :   7.539
constraining FC (au)   :  0.0500
########################################################################
[WARNING] Please study the warnings concerning your input carefully
-1- readin_getIntValue: could not parse 'S'
########################################################################

           -------------------------------------------------
          |                 G F N 2 - x T B                 |
           -------------------------------------------------

        Reference                      10.1021/acs.jctc.8b01176
      * Hamiltonian:
        H0-scaling (s, p, d)           1.850000    2.230000    2.230000
        zeta-weighting                 0.500000
      * Dispersion:
        s8                             2.700000
        a1                             0.520000
        a2                             5.000000
        s9                             5.000000
      * Repulsion:
        kExp                           1.500000    1.000000
        rExp                           1.000000
      * Coulomb:
        alpha                          2.000000
        third order                    shell-resolved
        anisotropic                    true
        a3                             3.000000
        a5                             4.000000
        cn-shift                       1.200000
        cn-exp                         4.000000
        max-rad                        5.000000

      * Solvation model:               ALPB
        Solvent                        ether
        Parameter file                 internal GFN2-xTB/ALPB
        Dielectric constant                4.3300E+00
        Reference state                gsolv [1 M gas/solution]
        Free energy shift                  4.9534E-03 Eh       3.1083E+00 kcal/mol
        Temperature                        2.9815E+02 K
        Density                            7.1300E-01 kg/L
        Solvent mass                       7.4120E+01 g/mol
        Interaction kernel             P16
        Born radius scaling (c1)           1.5847E+00
        Born radii integrator          GBOBC
        Born offset                        0.0000E+00 a0       0.0000E+00 AA
        H-bond correction              true
        Ion screening                  false
        Surface tension                    1.0000E-05 Eh       1.5569E+01 dyn/cm
        Grid points                               230 per atom

          ...................................................
          :                      SETUP                      :
          :.................................................:
          :  # basis functions                 230          :
          :  # atomic orbitals                 230          :
          :  # shells                          136          :
          :  # electrons                       262          :
          :  max. iterations                   250          :
          :  Hamiltonian                  GFN2-xTB          :
          :  restarted?                      false          :
          :  GBSA solvation                   true          :
          :  PC potential                    false          :
          :  electronic temp.          300.0000000     K    :
          :  accuracy                    1.0000000          :
          :  -> integral cutoff          0.2500000E+02      :
          :  -> integral neglect         0.1000000E-07      :
          :  -> SCF convergence          0.1000000E-05 Eh   :
          :  -> wf. convergence          0.1000000E-03 e    :
          :  Broyden damping             0.4000000          :
          :  net charge                         -2          :
          :  unpaired electrons                  0          :
          ...................................................

 iter      E             dE          RMSdq      gap      omega  full diag
   1   -150.7877405 -0.150788E+03  0.484E+00    2.45       0.0  T
   2   -150.4896048  0.298136E+00  0.342E+00    0.03       1.0  T
   3   -151.1568108 -0.667206E+00  0.250E+00    2.61       1.0  T
   4   -151.4244552 -0.267644E+00  0.133E+00    1.83       1.0  T
   5   -151.4791850 -0.547298E-01  0.640E-01    0.11       1.0  T
   6   -151.3762551  0.102930E+00  0.933E-01    0.02       1.0  T
   7   -150.7442057  0.632049E+00  0.235E+00    0.15       1.0  T
   8   -151.4480644 -0.703859E+00  0.672E-01    0.65       1.0  T
   9   -151.4523066 -0.424214E-02  0.603E-01    0.54       1.0  T
  10   -151.4565551 -0.424854E-02  0.542E-01    0.38       1.0  T
  11   -151.4679562 -0.114011E-01  0.427E-01    0.20       1.0  T
  12   -150.6041588  0.863797E+00  0.269E+00    0.19       1.0  T
  13   -151.4597335 -0.855575E+00  0.505E-01    0.27       1.0  T
  14   -151.4699953 -0.102618E-01  0.415E-01    0.18       1.0  T
  15   -151.4879977 -0.180025E-01  0.200E-01    0.09       1.0  T
  16   -151.4880504 -0.526703E-04  0.199E-01    0.08       1.0  T
  17   -151.4887018 -0.651367E-03  0.181E-01    0.08       1.0  T
  18   -151.4895637 -0.861957E-03  0.152E-01    0.09       1.0  T
  19   -151.4914286 -0.186485E-02  0.828E-02    0.09       1.0  T
  20   -151.4921243 -0.695745E-03  0.284E-02    0.09       1.0  T
  21   -151.4918665  0.257872E-03  0.552E-02    0.09       1.0  T
  22   -151.4919882 -0.121693E-03  0.435E-02    0.09       1.0  T
  23   -151.4921691 -0.180978E-03  0.216E-02    0.09       1.0  T
  24   -151.4922037 -0.345492E-04  0.127E-02    0.09       1.0  T
  25   -151.4922241 -0.203852E-04  0.166E-03    0.09       6.4  T
  26   -151.4922237  0.386804E-06  0.227E-03    0.09       4.7  T
  27   -151.4922240 -0.315722E-06  0.180E-03    0.09       5.9  T
  28   -151.4922244 -0.378509E-06  0.307E-04    0.09      34.5  T
  29   -151.4922244 -0.109171E-07  0.125E-05    0.09     845.0  T

   *** convergence criteria satisfied after 29 iterations ***

         #    Occupation            Energy/Eh            Energy/eV
      -------------------------------------------------------------
         1        2.0000           -0.6757502             -18.3881
       ...           ...                  ...                  ...
       125        2.0000           -0.3334402              -9.0734
       126        2.0000           -0.3177717              -8.6470
       127        2.0000           -0.3145781              -8.5601
       128        2.0000           -0.3100071              -8.4357
       129        2.0000           -0.2792806              -7.5996
       130        2.0000           -0.2708766              -7.3709
       131        1.6349           -0.2384105              -6.4875 (HOMO)
       132        0.2459           -0.2351196              -6.3979 (LUMO)
       133        0.1192           -0.2343651              -6.3774
       134                         -0.1924593              -5.2371
       135                         -0.1870556              -5.0900
       136                         -0.1862363              -5.0677
       ...                                ...                  ...
       230                          0.7370192              20.0553
      -------------------------------------------------------------
                  HL-Gap            0.0032908 Eh            0.0895 eV
             Fermi-level           -0.2369862 Eh           -6.4487 eV

 SCC (total)                   0 d,  0 h,  0 min,  0.856 sec
 SCC setup                      ...        0 min,  0.001 sec (  0.097%)
 Dispersion                     ...        0 min,  0.001 sec (  0.169%)
 classical contributions        ...        0 min,  0.000 sec (  0.016%)
 integral evaluation            ...        0 min,  0.003 sec (  0.405%)
 iterations                     ...        0 min,  0.842 sec ( 98.299%)
 molecular gradient             ...        0 min,  0.008 sec (  0.985%)
 printout                       ...        0 min,  0.000 sec (  0.028%)

         :::::::::::::::::::::::::::::::::::::::::::::::::::::
         ::                     SUMMARY                     ::
         :::::::::::::::::::::::::::::::::::::::::::::::::::::
         :: total energy            -149.699305172011 Eh    ::
         :: total w/o Gsasa/hb      -149.653315915919 Eh    ::
         :: gradient norm              0.210496681740 Eh/a0 ::
         :: HOMO-LUMO gap              0.089548569201 eV    ::
         ::.................................................::
         :: SCC energy              -151.488343183685 Eh    ::
         :: -> isotropic ES            0.768030721926 Eh    ::
         :: -> anisotropic ES          0.003406942961 Eh    ::
         :: -> anisotropic XC          0.040189649818 Eh    ::
         :: -> dispersion             -0.102100474732 Eh    ::
         :: -> Gsolv                  -0.265836924008 Eh    ::
         ::    -> Gelec               -0.219847667915 Eh    ::
         ::    -> Gsasa               -0.041541120715 Eh    ::
         ::    -> Ghb                 -0.009401572955 Eh    ::
         ::    -> Gshift               0.004953437577 Eh    ::
         :: repulsion energy           1.789038011674 Eh    ::
         :: add. restraining           0.000000000000 Eh    ::
         :: total charge              -2.000000000000 e     ::
         :::::::::::::::::::::::::::::::::::::::::::::::::::::

           -------------------------------------------------
          |                Property Printout                |
           -------------------------------------------------

    * Orbital Energies and Occupations

         #    Occupation            Energy/Eh            Energy/eV
      -------------------------------------------------------------
         1        2.0000           -0.6757502             -18.3881
       ...           ...                  ...                  ...
       119        2.0000           -0.3578316              -9.7371
       120        2.0000           -0.3568818              -9.7112
       121        2.0000           -0.3520333              -9.5793
       122        2.0000           -0.3491389              -9.5006
       123        2.0000           -0.3464558              -9.4275
       124        2.0000           -0.3351017              -9.1186
       125        2.0000           -0.3334402              -9.0734
       126        2.0000           -0.3177717              -8.6470
       127        2.0000           -0.3145781              -8.5601
       128        2.0000           -0.3100071              -8.4357
       129        2.0000           -0.2792806              -7.5996
       130        2.0000           -0.2708766              -7.3709
       131        1.6349           -0.2384105              -6.4875 (HOMO)
       132        0.2459           -0.2351196              -6.3979 (LUMO)
       133        0.1192           -0.2343651              -6.3774
       134                         -0.1924593              -5.2371
       135                         -0.1870556              -5.0900
       136                         -0.1862363              -5.0677
       137                         -0.1779283              -4.8417
       138                         -0.1734450              -4.7197
       139                         -0.1627850              -4.4296
       140                         -0.1126696              -3.0659
       141                         -0.0898940              -2.4461
       142                         -0.0604816              -1.6458
       ...                                ...                  ...
       230                          0.7370192              20.0553
      -------------------------------------------------------------
                  HL-Gap            0.0032908 Eh            0.0895 eV
             Fermi-level           -0.2369862 Eh           -6.4487 eV

     #   Z          covCN         q      C6AA      α(0)
     1   7 N        2.632    -0.369    29.532     8.071
     2   6 C        3.785     0.044    19.855     6.347
     3   6 C        2.764     0.160    24.526     8.110
     4   8 O        0.856    -0.447    22.635     6.379
     5   6 C        3.811    -0.097    22.343     6.728
     6   6 C        2.742     0.286    22.144     7.705
     7   8 O        0.859    -0.513    24.074     6.578
     8   7 N        2.640    -0.275    27.103     7.732
     9   7 N        2.629    -0.371    29.574     8.077
    10   6 C        3.788     0.039    19.930     6.358
    11   6 C        2.756     0.271    22.430     7.755
    12   8 O        0.859    -0.492    23.615     6.515
    13   6 C        3.813    -0.098    22.352     6.729
    14   6 C        2.744     0.286    22.145     7.705
    15   8 O        0.859    -0.487    23.508     6.501
    16   7 N        2.640    -0.292    27.524     7.792
    17   7 N        2.691    -0.160    24.463     7.346
    18   6 C        3.802     0.027    20.123     6.387
    19   6 C        2.757     0.281    22.244     7.723
    20   8 O        0.859    -0.502    23.837     6.546
    21   6 C        3.763    -0.128    23.001     6.836
    22   7 N        2.690    -0.174    24.759     7.390
    23   6 C        3.799     0.028    20.098     6.383
    24   6 C        2.753     0.261    22.606     7.786
    25   8 O        0.858    -0.501    23.816     6.543
    26   6 C        3.810    -0.062    21.676     6.627
    27   6 C        3.088     0.025    27.343     8.571
    28   7 N        1.985    -0.408    31.531     8.328
    29   6 C        3.052    -0.040    28.953     8.825
    30   6 C        2.104    -0.114    34.025     9.425
    31   7 N        2.837    -0.132    23.848     7.253
    32   7 N        2.691    -0.170    24.683     7.379
    33   6 C        3.799     0.028    20.113     6.385
    34   6 C        2.762     0.275    22.354     7.743
    35   8 O        0.859    -0.506    23.911     6.556
    36   6 C        3.820    -0.081    22.031     6.680
    37   6 C        3.853    -0.013    20.768     6.482
    38   6 C        3.768    -0.120    22.836     6.811
    39   6 C        3.761    -0.122    22.883     6.819
    40   7 N        2.692    -0.165    24.560     7.360
    41   6 C        3.797     0.042    19.866     6.347
    42   6 C        2.763     0.198    23.788     7.987
    43   8 O        0.856    -0.409    21.861     6.269
    44   6 C        3.812    -0.093    22.259     6.715
    45   6 C        2.690     0.363    20.840     7.471
    46   8 O        0.857    -0.641    27.143     6.985
    47   8 O        0.857    -0.630    26.874     6.950
    48   1 H        0.860     0.162     1.324     1.802
    49   1 H        0.860     0.151     1.398     1.852
    50   1 H        0.927     0.057     2.237     2.339
    51   1 H        0.929     0.025     2.664     2.552
    52   1 H        0.927     0.066     2.126     2.280
    53   1 H        0.927     0.056     2.246     2.343
    54   1 H        0.861     0.219     1.012     1.576
    55   1 H        0.861     0.234     0.948     1.525
    56   1 H        0.860     0.162     1.323     1.802
    57   1 H        0.860     0.160     1.333     1.809
    58   1 H        0.927     0.036     2.501     2.473
    59   1 H        0.927     0.081     1.972     2.196
    60   1 H        0.927     0.066     2.124     2.279
    61   1 H        0.861     0.220     1.010     1.575
    62   1 H        0.861     0.229     0.968     1.541
    63   1 H        0.861     0.209     1.060     1.612
    64   1 H        0.927     0.082     1.962     2.191
    65   1 H        0.927     0.063     2.169     2.303
    66   1 H        0.927     0.074     2.046     2.237
    67   1 H        0.926     0.059     2.208     2.324
    68   1 H        0.861     0.205     1.080     1.628
    69   1 H        0.927     0.065     2.137     2.286
    70   1 H        0.927     0.035     2.518     2.481
    71   1 H        0.927     0.051     2.304     2.374
    72   1 H        0.929    -0.038     3.803     3.049
    73   1 H        0.861     0.220     1.007     1.572
    74   1 H        0.927     0.061     2.185     2.312
    75   1 H        0.927     0.058     2.220     2.330
    76   1 H        0.927     0.071     2.071     2.250
    77   1 H        0.927     0.038     2.475     2.460
    78   1 H        0.927     0.045     2.386     2.416
    79   1 H        0.927     0.043     2.415     2.430
    80   1 H        0.927     0.050     2.315     2.379
    81   1 H        0.927     0.042     2.420     2.433
    82   1 H        0.927     0.046     2.371     2.408
    83   1 H        0.927     0.035     2.521     2.483
    84   1 H        0.861     0.214     1.039     1.597
    85   1 H        0.926     0.067     2.118     2.276
    86   1 H        0.929     0.051     2.305     2.374
    87   1 H        0.926     0.048     2.347     2.396
    88   1 H        0.927     0.050     2.321     2.382
    89   1 H        0.858     0.129     1.550     1.950

 Mol. C6AA /au·bohr⁶  :      82132.969320
 Mol. C8AA /au·bohr⁸  :    1830171.869369
 Mol. α(0) /au        :        428.867548


Wiberg/Mayer (AO) data.
largest (>0.10) Wiberg bond orders for each atom

 ---------------------------------------------------------------------------
     #   Z sym  total        # sym  WBO       # sym  WBO       # sym  WBO
 ---------------------------------------------------------------------------
     1   7 N    2.994 --     2 C    1.018    49 H    0.961    48 H    0.957
     2   6 C    3.983 --     1 N    1.018     3 C    0.976     5 C    0.963
                            50 H    0.954
     3   6 C    3.689 --     4 O    1.711     2 C    0.976    51 H    0.954
     4   8 O    1.847 --     3 C    1.711
     5   6 C    3.984 --     6 C    0.965     2 C    0.963    53 H    0.962
                            52 H    0.957
     6   6 C    3.942 --     7 O    1.603     8 N    1.340     5 C    0.965
     7   8 O    1.925 --     6 C    1.603     8 N    0.193
     8   7 N    3.419 --     6 C    1.340    54 H    0.934    55 H    0.904
                             7 O    0.193
     9   7 N    2.981 --    10 C    1.009    57 H    0.959    56 H    0.940
    10   6 C    3.987 --     9 N    1.009    13 C    0.973    58 H    0.947
                            11 C    0.943
    11   6 C    3.947 --    12 O    1.645    17 N    1.297    10 C    0.943
    12   8 O    1.955 --    11 C    1.645    17 N    0.196
    13   6 C    3.993 --    10 C    0.973    59 H    0.971    14 C    0.971
                            60 H    0.965
    14   6 C    3.946 --    15 O    1.663    16 N    1.288    13 C    0.971
    15   8 O    1.955 --    14 C    1.663    16 N    0.196
    16   7 N    3.377 --    14 C    1.288    61 H    0.934    62 H    0.927
                            15 O    0.196
    17   7 N    3.470 --    11 C    1.297    18 C    0.984    63 H    0.911
                            12 O    0.196
    18   6 C    3.970 --    21 C    0.993    17 N    0.984    64 H    0.946
                            19 C    0.941
    19   6 C    3.945 --    20 O    1.635    22 N    1.294    18 C    0.941
    20   8 O    1.941 --    19 C    1.635    22 N    0.191
    21   6 C    3.987 --    18 C    0.993    66 H    0.982    65 H    0.981
                            67 H    0.979
    22   7 N    3.463 --    19 C    1.294    23 C    0.972    68 H    0.929
                            20 O    0.191
    23   6 C    3.961 --    22 N    0.972    26 C    0.970    69 H    0.947
                            24 C    0.938
    24   6 C    3.950 --    25 O    1.625    32 N    1.315    23 C    0.938
    25   8 O    1.932 --    24 C    1.625    32 N    0.200
    26   6 C    3.987 --    27 C    1.001    71 H    0.974    23 C    0.970
                            70 H    0.970
    27   6 C    3.939 --    29 C    1.571    28 N    1.241    26 C    1.001
    28   7 N    2.925 --    30 C    1.507    27 C    1.241
    29   6 C    3.912 --    27 C    1.571    31 N    1.155    72 H    0.971
                            30 C    0.112
    30   6 C    2.935 --    28 N    1.507    31 N    1.267    29 C    0.112
    31   7 N    3.513 --    30 C    1.267    29 C    1.155    89 H    0.947
    32   7 N    3.476 --    24 C    1.315    33 C    0.972    73 H    0.906
                            25 O    0.200
    33   6 C    3.966 --    36 C    0.976    32 N    0.972    74 H    0.954
                            34 C    0.940
    34   6 C    3.947 --    35 O    1.601    40 N    1.326    33 C    0.940
    35   8 O    1.938 --    34 C    1.601    40 N    0.196
    36   6 C    3.982 --    37 C    0.989    33 C    0.976    75 H    0.972
                            76 H    0.969
    37   6 C    3.994 --    38 C    1.008    39 C    1.008    36 C    0.989
                            77 H    0.970
    38   6 C    3.994 --    37 C    1.008    79 H    0.986    78 H    0.985
                            80 H    0.985
    39   6 C    3.996 --    37 C    1.008    81 H    0.987    82 H    0.986
                            83 H    0.986
    40   7 N    3.487 --    34 C    1.326    41 C    0.966    84 H    0.923
                            35 O    0.196
    41   6 C    3.962 --    44 C    0.973    42 C    0.970    40 N    0.966
                            85 H    0.956
    42   6 C    3.791 --    43 O    1.804    41 C    0.970    86 H    0.955
    43   8 O    1.932 --    42 C    1.804
    44   6 C    3.976 --    41 C    0.973    87 H    0.969    88 H    0.961
                            45 C    0.931
    45   6 C    3.945 --    47 O    1.500    46 O    1.492    44 C    0.931
    46   8 O    1.792 --    45 C    1.492    47 O    0.223
    47   8 O    1.796 --    45 C    1.500    46 O    0.223
    48   1 H    0.973 --     1 N    0.957
    49   1 H    0.977 --     1 N    0.961
    50   1 H    0.995 --     2 C    0.954
    51   1 H    0.999 --     3 C    0.954
    52   1 H    0.996 --     5 C    0.957
    53   1 H    0.997 --     5 C    0.962
    54   1 H    0.952 --     8 N    0.934
    55   1 H    0.944 --     8 N    0.904
    56   1 H    0.973 --     9 N    0.940
    57   1 H    0.974 --     9 N    0.959
    58   1 H    0.999 --    10 C    0.947
    59   1 H    0.993 --    13 C    0.971
    60   1 H    0.995 --    13 C    0.965
    61   1 H    0.952 --    16 N    0.934
    62   1 H    0.947 --    16 N    0.927
    63   1 H    0.956 --    17 N    0.911
    64   1 H    0.993 --    18 C    0.946
    65   1 H    0.996 --    21 C    0.981
    66   1 H    0.994 --    21 C    0.982
    67   1 H    0.996 --    21 C    0.979
    68   1 H    0.958 --    22 N    0.929
    69   1 H    0.996 --    23 C    0.947
    70   1 H    0.997 --    26 C    0.970
    71   1 H    0.997 --    26 C    0.974
    72   1 H    0.998 --    29 C    0.971
    73   1 H    0.951 --    32 N    0.906
    74   1 H    0.996 --    33 C    0.954
    75   1 H    0.996 --    36 C    0.972
    76   1 H    0.995 --    36 C    0.969
    77   1 H    0.999 --    37 C    0.970
    78   1 H    0.998 --    38 C    0.985
    79   1 H    0.998 --    38 C    0.986
    80   1 H    0.997 --    38 C    0.985
    81   1 H    0.998 --    39 C    0.987
    82   1 H    0.998 --    39 C    0.986
    83   1 H    0.999 --    39 C    0.986
    84   1 H    0.954 --    40 N    0.923
    85   1 H    0.995 --    41 C    0.956
    86   1 H    0.997 --    42 C    0.955
    87   1 H    0.998 --    44 C    0.969
    88   1 H    0.997 --    44 C    0.961
    89   1 H    0.983 --    31 N    0.947
 ---------------------------------------------------------------------------

Topologies differ in total number of bonds
Writing topology from bond orders to xtbtopo.mol

molecular dipole:
                 x           y           z       tot (Debye)
 q only:      -74.813     -55.311    -128.523
   full:      -75.025     -55.377    -130.153     406.960
molecular quadrupole (traceless):
                xx          xy          yy          xz          yz          zz
 q only:     2025.387   -3281.263    3953.979   -7313.306   -5420.907   -5979.366
  q+dip:     2108.631   -3297.581    4064.834   -7439.171   -5532.683   -6173.465
   full:     2110.889   -3298.897    4064.726   -7438.716   -5530.723   -6175.615


           -------------------------------------------------
          | TOTAL ENERGY             -149.699305172011 Eh   |
          | GRADIENT NORM               0.210496681740 Eh/α |
          | HOMO-LUMO GAP               0.089548569201 eV   |
           -------------------------------------------------
########################################################################
[WARNING] Runtime exception occurred
-2- restart_readRestart: Dimension missmatch in restart file.
-1- restart_readRestart: Number of electron missmatch in restart file.
########################################################################

------------------------------------------------------------------------
 * finished run on 2025/05/05 at 16:53:40.321     
------------------------------------------------------------------------
 total:
 * wall-time:     0 d,  0 h,  0 min,  0.864 sec
 *  cpu-time:     0 d,  0 h,  0 min, 21.471 sec
 * ratio c/w:    24.846 speedup
 SCF:
 * wall-time:     0 d,  0 h,  0 min,  0.857 sec
 *  cpu-time:     0 d,  0 h,  0 min, 21.329 sec
 * ratio c/w:    24.900 speedup

