      -----------------------------------------------------------      
     |                   =====================                   |     
     |                           x T B                           |     
     |                   =====================                   |     
     |                         S. Grimme                         |     
     |          Mulliken Center for Theoretical Chemistry        |     
     |                    University of Bonn                     |     
      -----------------------------------------------------------      

   * xtb version 6.7.1 (edcfbbe) compiled by 'conda@afd1a870197c' on 2025-04-11

   xtb is free software: you can redistribute it and/or modify it under
   the terms of the GNU Lesser General Public License as published by
   the Free Software Foundation, either version 3 of the License, or
   (at your option) any later version.
   
   xtb is distributed in the hope that it will be useful,
   but WITHOUT ANY WARRANTY; without even the implied warranty of
   MERCHANTABILITY or FITNESS FOR A PARTICULAR PURPOSE.  See the
   GNU Lesser General Public License for more details.
   
   Cite this work as:
   * C. Bannwarth, E. Caldeweyher, S. Ehlert, A. Hansen, P. Pracht,
     J. Seibert, S. Spicher, S. Grimme, WIREs Comput. Mol. Sci., 2020, 11,
     e01493. DOI: 10.1002/wcms.1493
   
   for GFN2-xTB:
   * C. Bannwarth, S. Ehlert and S. Grimme., J. Chem. Theory Comput., 2019,
     15, 1652-1671. DOI: 10.1021/acs.jctc.8b01176
   for GFN1-xTB:
   * S. Grimme, C. Bannwarth, P. Shushkov, J. Chem. Theory Comput., 2017,
     13, 1989-2009. DOI: 10.1021/acs.jctc.7b00118
   for GFN0-xTB:
   * P. Pracht, E. Caldeweyher, S. Ehlert, S. Grimme, ChemRxiv, 2019, preprint.
     DOI: 10.26434/chemrxiv.8326202.v1
   for GFN-FF:
   * S. Spicher and S. Grimme, Angew. Chem. Int. Ed., 2020, 59, 15665-15673.
     DOI: 10.1002/anie.202004239
   
   for ALPB and GBSA implicit solvation:
   * S. Ehlert, M. Stahn, S. Spicher, S. Grimme, J. Chem. Theory Comput.,
     2021, 17, 4250-4261. DOI: 10.1021/acs.jctc.1c00471
   
   for ddCOSMO and CPCM-X implicit solvation:
   * M. Stahn, S. Ehlert, S. Grimme, J. Phys. Chem. A,
     2023, XX, XXXX-XXXX. DOI: 10.1021/acs.jpca.3c04382
   
   for DFT-D4:
   * E. Caldeweyher, C. Bannwarth and S. Grimme, J. Chem. Phys., 2017,
     147, 034112. DOI: 10.1063/1.4993215
   * E. Caldeweyher, S. Ehlert, A. Hansen, H. Neugebauer, S. Spicher,
     C. Bannwarth and S. Grimme, J. Chem. Phys., 2019, 150, 154122.
     DOI: 10.1063/1.5090222
   * E. Caldeweyher, J.-M. Mewes, S. Ehlert and S. Grimme, Phys. Chem. Chem. Phys.
     2020, 22, 8499-8512. DOI: 10.1039/D0CP00502A
   
   for sTDA-xTB:
   * S. Grimme and C. Bannwarth, J. Chem. Phys., 2016, 145, 054103.
     DOI: 10.1063/1.4959605
   
   in the mass-spec context:
   * V. Asgeirsson, C. Bauer and S. Grimme, Chem. Sci., 2017, 8, 4879.
     DOI: 10.1039/c7sc00601b
   * J. Koopman and S. Grimme, ACS Omega 2019, 4, 12, 15120-15133.
     DOI: 10.1021/acsomega.9b02011
   
   for metadynamics refer to:
   * S. Grimme, J. Chem. Theory Comput., 2019, 155, 2847-2862
     DOI: 10.1021/acs.jctc.9b00143
   
   for SPH calculations refer to:
   * S. Spicher and S. Grimme, J. Chem. Theory Comput., 2021, 17, 1701-1714
     DOI: 10.1021/acs.jctc.0c01306
   
   for ONIOM refer to:
   * C. Plett, A. Katbashev, S. Ehlert, S. Grimme, M. Bursch,
     Phys. Chem. Chem. Phys., 2023, 25, 17860-17868. DOI: 10.1039/D3CP02178E
   
   for DIPRO refer to:
   * J. Kohn, N. Gildemeister, S. Grimme, D. Fazzi, A. Hansen,
     J. Chem. Phys., 2023, just accepted.
   
   for PTB refer to:
   * S. Grimme, M. Mueller, A. Hansen, J. Chem. Phys., 2023, 158, 124111.
     DOI: 10.1063/5.0137838
   
   with help from (in alphabetical order)
   P. Atkinson, C. Bannwarth, F. Bohle, G. Brandenburg, E. Caldeweyher
   M. Checinski, S. Dohm, S. Ehlert, S. Ehrlich, I. Gerasimov, C. Hölzer
   A. Katbashev, J. Kohn, J. Koopman, C. Lavigne, S. Lehtola, F. März, M. Müller,
   F. Musil, H. Neugebauer, J. Pisarek, C. Plett, P. Pracht, F. Pultar,
   J. Seibert, P. Shushkov, S. Spicher, M. Stahn, M. Steiner, T. Strunk,
   J. Stückrath, T. Rose, and J. Unsleber
   
 * started run on 2025/05/05 at 17:00:45.762     
   ID    Z sym.   atoms
    1    7 N      1, 8, 9, 16, 17, 22, 28, 31, 32, 40
    2    6 C      2, 3, 5, 6, 10, 11, 13, 14, 18, 19, 21, 23, 24, 26, 27, 29,
                  30, 33, 34, 36-39, 41, 42, 44, 45
    3    8 O      4, 7, 12, 15, 20, 25, 35, 43, 46, 47
    4    1 H      48-89

           -------------------------------------------------
          |                Calculation Setup                |
           -------------------------------------------------

          program call               : xtb /tmp/tmppelpeul7/HID/input.xyz --alpb ether --chrg -2 --input /tmp/tmppelpeul7/HID/constraints.inp --gfn 2
          hostname                   : fedora
          coordinate file            : /tmp/tmppelpeul7/HID/input.xyz
          omp threads                :                    32


molecular fragmentation (1/2 indicates fragments):
111111112222222222222222222222222222222222222221111111122222222222222222
22222222222222222
# atoms in fragment 1/2:    16    73
 fragment masses (1/2) :      116.12      550.57
CMA distance (Bohr)    :   7.728
constraining FC (au)   :  0.0500
########################################################################
[WARNING] Please study the warnings concerning your input carefully
-1- readin_getIntValue: could not parse 'S'
########################################################################

           -------------------------------------------------
          |                 G F N 2 - x T B                 |
           -------------------------------------------------

        Reference                      10.1021/acs.jctc.8b01176
      * Hamiltonian:
        H0-scaling (s, p, d)           1.850000    2.230000    2.230000
        zeta-weighting                 0.500000
      * Dispersion:
        s8                             2.700000
        a1                             0.520000
        a2                             5.000000
        s9                             5.000000
      * Repulsion:
        kExp                           1.500000    1.000000
        rExp                           1.000000
      * Coulomb:
        alpha                          2.000000
        third order                    shell-resolved
        anisotropic                    true
        a3                             3.000000
        a5                             4.000000
        cn-shift                       1.200000
        cn-exp                         4.000000
        max-rad                        5.000000

      * Solvation model:               ALPB
        Solvent                        ether
        Parameter file                 internal GFN2-xTB/ALPB
        Dielectric constant                4.3300E+00
        Reference state                gsolv [1 M gas/solution]
        Free energy shift                  4.9534E-03 Eh       3.1083E+00 kcal/mol
        Temperature                        2.9815E+02 K
        Density                            7.1300E-01 kg/L
        Solvent mass                       7.4120E+01 g/mol
        Interaction kernel             P16
        Born radius scaling (c1)           1.5847E+00
        Born radii integrator          GBOBC
        Born offset                        0.0000E+00 a0       0.0000E+00 AA
        H-bond correction              true
        Ion screening                  false
        Surface tension                    1.0000E-05 Eh       1.5569E+01 dyn/cm
        Grid points                               230 per atom

          ...................................................
          :                      SETUP                      :
          :.................................................:
          :  # basis functions                 230          :
          :  # atomic orbitals                 230          :
          :  # shells                          136          :
          :  # electrons                       262          :
          :  max. iterations                   250          :
          :  Hamiltonian                  GFN2-xTB          :
          :  restarted?                      false          :
          :  GBSA solvation                   true          :
          :  PC potential                    false          :
          :  electronic temp.          300.0000000     K    :
          :  accuracy                    1.0000000          :
          :  -> integral cutoff          0.2500000E+02      :
          :  -> integral neglect         0.1000000E-07      :
          :  -> SCF convergence          0.1000000E-05 Eh   :
          :  -> wf. convergence          0.1000000E-03 e    :
          :  Broyden damping             0.4000000          :
          :  net charge                         -2          :
          :  unpaired electrons                  0          :
          ...................................................

 iter      E             dE          RMSdq      gap      omega  full diag
   1   -150.8532488 -0.150853E+03  0.479E+00    2.44       0.0  T
   2   -150.2815226  0.571726E+00  0.373E+00    0.22       1.0  T
   3   -151.2183081 -0.936786E+00  0.248E+00    0.53       1.0  T
   4   -151.4577312 -0.239423E+00  0.139E+00    0.40       1.0  T
   5   -150.6941486  0.763583E+00  0.257E+00    0.29       1.0  T
   6   -151.4649283 -0.770780E+00  0.933E-01    0.93       1.0  T
   7   -151.4895766 -0.246483E-01  0.620E-01    0.39       1.0  T
   8   -151.5042583 -0.146817E-01  0.434E-01    0.18       1.0  T
   9   -150.5256539  0.978604E+00  0.294E+00    0.49       1.0  T
  10   -151.4962030 -0.970549E+00  0.467E-01    0.05       1.0  T
  11   -151.5160244 -0.198215E-01  0.243E-01    0.13       1.0  T
  12   -151.5217607 -0.573629E-02  0.134E-01    0.09       1.0  T
  13   -151.5228678 -0.110705E-02  0.847E-02    0.10       1.0  T
  14   -151.5235127 -0.644874E-03  0.455E-02    0.09       1.0  T
  15   -151.5235907 -0.780191E-04  0.354E-02    0.10       1.0  T
  16   -151.5237394 -0.148740E-03  0.124E-02    0.09       1.0  T
  17   -151.5237578 -0.183502E-04  0.467E-03    0.09       2.3  T
  18   -151.5237583 -0.502902E-06  0.387E-03    0.09       2.7  T
  19   -151.5237595 -0.123869E-05  0.249E-03    0.09       4.3  T
  20   -151.5237602 -0.684195E-06  0.632E-04    0.09      16.8  T
  21   -151.5237602 -0.425825E-07  0.273E-04    0.09      38.9  T

   *** convergence criteria satisfied after 21 iterations ***

         #    Occupation            Energy/Eh            Energy/eV
      -------------------------------------------------------------
         1        2.0000           -0.6839703             -18.6118
       ...           ...                  ...                  ...
       125        2.0000           -0.3319099              -9.0317
       126        2.0000           -0.3220258              -8.7628
       127        2.0000           -0.3119745              -8.4893
       128        2.0000           -0.3077852              -8.3753
       129        2.0000           -0.2765973              -7.5266
       130        2.0000           -0.2703254              -7.3559
       131        1.6568           -0.2397334              -6.5235 (HOMO)
       132        0.2249           -0.2362748              -6.4294 (LUMO)
       133        0.1183           -0.2356089              -6.4112
       134                         -0.1921803              -5.2295
       135                         -0.1848767              -5.0308
       136                         -0.1815475              -4.9402
       ...                                ...                  ...
       230                          0.7310218              19.8921
      -------------------------------------------------------------
                  HL-Gap            0.0034587 Eh            0.0941 eV
             Fermi-level           -0.2382376 Eh           -6.4828 eV

 SCC (total)                   0 d,  0 h,  0 min,  0.674 sec
 SCC setup                      ...        0 min,  0.001 sec (  0.124%)
 Dispersion                     ...        0 min,  0.001 sec (  0.212%)
 classical contributions        ...        0 min,  0.000 sec (  0.017%)
 integral evaluation            ...        0 min,  0.005 sec (  0.775%)
 iterations                     ...        0 min,  0.656 sec ( 97.262%)
 molecular gradient             ...        0 min,  0.010 sec (  1.556%)
 printout                       ...        0 min,  0.000 sec (  0.052%)

         :::::::::::::::::::::::::::::::::::::::::::::::::::::
         ::                     SUMMARY                     ::
         :::::::::::::::::::::::::::::::::::::::::::::::::::::
         :: total energy            -149.701568221005 Eh    ::
         :: total w/o Gsasa/hb      -149.654789957788 Eh    ::
         :: gradient norm              0.212389915120 Eh/a0 ::
         :: HOMO-LUMO gap              0.094114855887 eV    ::
         ::.................................................::
         :: SCC energy              -151.520074532223 Eh    ::
         :: -> isotropic ES            0.764699532160 Eh    ::
         :: -> anisotropic ES          0.000558207068 Eh    ::
         :: -> anisotropic XC          0.038174059222 Eh    ::
         :: -> dispersion             -0.101179247208 Eh    ::
         :: -> Gsolv                  -0.265844297699 Eh    ::
         ::    -> Gelec               -0.219066034482 Eh    ::
         ::    -> Gsasa               -0.042503989077 Eh    ::
         ::    -> Ghb                 -0.009227711718 Eh    ::
         ::    -> Gshift               0.004953437577 Eh    ::
         :: repulsion energy           1.818506311218 Eh    ::
         :: add. restraining           0.000000000000 Eh    ::
         :: total charge              -2.000000000000 e     ::
         :::::::::::::::::::::::::::::::::::::::::::::::::::::

           -------------------------------------------------
          |                Property Printout                |
           -------------------------------------------------

    * Orbital Energies and Occupations

         #    Occupation            Energy/Eh            Energy/eV
      -------------------------------------------------------------
         1        2.0000           -0.6839703             -18.6118
       ...           ...                  ...                  ...
       119        2.0000           -0.3601481              -9.8001
       120        2.0000           -0.3585034              -9.7554
       121        2.0000           -0.3575582              -9.7297
       122        2.0000           -0.3558772              -9.6839
       123        2.0000           -0.3515612              -9.5665
       124        2.0000           -0.3363115              -9.1515
       125        2.0000           -0.3319099              -9.0317
       126        2.0000           -0.3220258              -8.7628
       127        2.0000           -0.3119745              -8.4893
       128        2.0000           -0.3077852              -8.3753
       129        2.0000           -0.2765973              -7.5266
       130        2.0000           -0.2703254              -7.3559
       131        1.6568           -0.2397334              -6.5235 (HOMO)
       132        0.2249           -0.2362748              -6.4294 (LUMO)
       133        0.1183           -0.2356089              -6.4112
       134                         -0.1921803              -5.2295
       135                         -0.1848767              -5.0308
       136                         -0.1815475              -4.9402
       137                         -0.1786257              -4.8607
       138                         -0.1759040              -4.7866
       139                         -0.1684704              -4.5843
       140                         -0.1140915              -3.1046
       141                         -0.0903693              -2.4591
       142                         -0.0593528              -1.6151
       ...                                ...                  ...
       230                          0.7310218              19.8921
      -------------------------------------------------------------
                  HL-Gap            0.0034587 Eh            0.0941 eV
             Fermi-level           -0.2382376 Eh           -6.4828 eV

     #   Z          covCN         q      C6AA      α(0)
     1   7 N        2.629    -0.373    29.625     8.084
     2   6 C        3.787     0.041    19.903     6.354
     3   6 C        2.764     0.166    24.409     8.091
     4   8 O        0.856    -0.434    22.381     6.343
     5   6 C        3.817    -0.097    22.334     6.726
     6   6 C        2.745     0.295    21.996     7.679
     7   8 O        0.861    -0.508    23.971     6.564
     8   7 N        2.644    -0.276    27.147     7.738
     9   7 N        2.632    -0.372    29.594     8.079
    10   6 C        3.787     0.041    19.906     6.355
    11   6 C        2.756     0.271    22.420     7.754
    12   8 O        0.859    -0.496    23.696     6.526
    13   6 C        3.812    -0.099    22.372     6.732
    14   6 C        2.744     0.287    22.137     7.704
    15   8 O        0.859    -0.490    23.562     6.508
    16   7 N        2.639    -0.292    27.541     7.794
    17   7 N        2.691    -0.161    24.473     7.347
    18   6 C        3.800     0.027    20.118     6.386
    19   6 C        2.759     0.283    22.208     7.717
    20   8 O        0.860    -0.488    23.526     6.503
    21   6 C        3.763    -0.128    23.003     6.837
    22   7 N        2.688    -0.185    24.999     7.426
    23   6 C        3.803     0.027    20.113     6.385
    24   6 C        2.768     0.266    22.508     7.770
    25   8 O        0.860    -0.505    23.893     6.554
    26   6 C        3.816    -0.063    21.698     6.630
    27   6 C        3.090    -0.015    28.279     8.717
    28   7 N        2.839    -0.138    23.989     7.274
    29   6 C        3.049    -0.001    28.001     8.679
    30   6 C        2.104    -0.126    34.375     9.473
    31   7 N        1.976    -0.403    31.385     8.308
    32   7 N        2.693    -0.172    24.733     7.386
    33   6 C        3.810     0.026    20.125     6.386
    34   6 C        2.765     0.278    22.305     7.735
    35   8 O        0.860    -0.502    23.824     6.544
    36   6 C        3.817    -0.075    21.924     6.664
    37   6 C        3.849    -0.018    20.856     6.496
    38   6 C        3.761    -0.121    22.869     6.817
    39   6 C        3.754    -0.123    22.907     6.825
    40   7 N        2.693    -0.168    24.624     7.370
    41   6 C        3.801     0.046    19.800     6.335
    42   6 C        2.764     0.193    23.882     8.003
    43   8 O        0.856    -0.394    21.563     6.226
    44   6 C        3.816    -0.089    22.190     6.704
    45   6 C        2.692     0.364    20.819     7.467
    46   8 O        0.857    -0.638    27.065     6.975
    47   8 O        0.857    -0.637    27.054     6.974
    48   1 H        0.860     0.159     1.344     1.816
    49   1 H        0.860     0.152     1.389     1.847
    50   1 H        0.927     0.060     2.196     2.317
    51   1 H        0.929     0.027     2.632     2.537
    52   1 H        0.927     0.080     1.974     2.197
    53   1 H        0.927     0.049     2.337     2.391
    54   1 H        0.861     0.221     1.005     1.571
    55   1 H        0.861     0.231     0.962     1.537
    56   1 H        0.860     0.171     1.268     1.764
    57   1 H        0.860     0.159     1.340     1.814
    58   1 H        0.927     0.032     2.560     2.502
    59   1 H        0.927     0.080     1.974     2.197
    60   1 H        0.927     0.067     2.115     2.274
    61   1 H        0.861     0.219     1.014     1.577
    62   1 H        0.861     0.231     0.960     1.535
    63   1 H        0.861     0.212     1.047     1.603
    64   1 H        0.927     0.077     2.010     2.217
    65   1 H        0.927     0.065     2.136     2.286
    66   1 H        0.926     0.072     2.063     2.246
    67   1 H        0.927     0.058     2.217     2.328
    68   1 H        0.861     0.199     1.112     1.652
    69   1 H        0.927     0.071     2.075     2.253
    70   1 H        0.927     0.049     2.332     2.388
    71   1 H        0.927     0.037     2.492     2.468
    72   1 H        0.929    -0.044     3.940     3.104
    73   1 H        0.861     0.223     0.994     1.561
    74   1 H        0.927     0.065     2.136     2.285
    75   1 H        0.927     0.058     2.226     2.333
    76   1 H        0.927     0.058     2.217     2.328
    77   1 H        0.927     0.039     2.456     2.451
    78   1 H        0.927     0.046     2.372     2.409
    79   1 H        0.927     0.043     2.406     2.425
    80   1 H        0.927     0.050     2.318     2.381
    81   1 H        0.927     0.043     2.409     2.427
    82   1 H        0.927     0.048     2.349     2.397
    83   1 H        0.927     0.036     2.507     2.476
    84   1 H        0.861     0.212     1.045     1.601
    85   1 H        0.927     0.062     2.174     2.305
    86   1 H        0.929     0.046     2.373     2.409
    87   1 H        0.927     0.045     2.386     2.416
    88   1 H        0.927     0.043     2.415     2.430
    89   1 H        0.858     0.124     1.591     1.976

 Mol. C6AA /au·bohr⁶  :      82167.295463
 Mol. C8AA /au·bohr⁸  :    1830626.695400
 Mol. α(0) /au        :        428.974424


Wiberg/Mayer (AO) data.
largest (>0.10) Wiberg bond orders for each atom

 ---------------------------------------------------------------------------
     #   Z sym  total        # sym  WBO       # sym  WBO       # sym  WBO
 ---------------------------------------------------------------------------
     1   7 N    2.992 --     2 C    1.013    49 H    0.962    48 H    0.960
     2   6 C    3.983 --     1 N    1.013     3 C    0.978     5 C    0.962
                            50 H    0.954
     3   6 C    3.708 --     4 O    1.725     2 C    0.978    51 H    0.952
     4   8 O    1.873 --     3 C    1.725
     5   6 C    3.984 --     6 C    0.969    53 H    0.968     2 C    0.962
                            52 H    0.946
     6   6 C    3.944 --     7 O    1.607     8 N    1.334     5 C    0.969
     7   8 O    1.939 --     6 C    1.607     8 N    0.193
     8   7 N    3.416 --     6 C    1.334    54 H    0.932    55 H    0.910
                             7 O    0.193
     9   7 N    2.987 --    10 C    1.017    57 H    0.958    56 H    0.927
    10   6 C    3.988 --     9 N    1.017    13 C    0.970    58 H    0.945
                            11 C    0.942
    11   6 C    3.945 --    12 O    1.643    17 N    1.298    10 C    0.942
    12   8 O    1.950 --    11 C    1.643    17 N    0.195
    13   6 C    3.993 --    14 C    0.974    59 H    0.972    10 C    0.970
                            60 H    0.964
    14   6 C    3.945 --    15 O    1.661    16 N    1.288    13 C    0.974
    15   8 O    1.952 --    14 C    1.661    16 N    0.196
    16   7 N    3.377 --    14 C    1.288    61 H    0.934    62 H    0.927
                            15 O    0.196
    17   7 N    3.471 --    11 C    1.298    18 C    0.986    63 H    0.907
                            12 O    0.195
    18   6 C    3.971 --    21 C    0.991    17 N    0.986    64 H    0.948
                            19 C    0.938
    19   6 C    3.945 --    20 O    1.652    22 N    1.279    18 C    0.938
    20   8 O    1.964 --    19 C    1.652    22 N    0.190
    21   6 C    3.987 --    18 C    0.991    66 H    0.982    65 H    0.982
                            67 H    0.981
    22   7 N    3.448 --    19 C    1.279    23 C    0.967    68 H    0.932
                            20 O    0.190
    23   6 C    3.960 --    26 C    0.968    22 N    0.967    24 C    0.949
                            69 H    0.942
    24   6 C    3.952 --    25 O    1.619    32 N    1.315    23 C    0.949
    25   8 O    1.929 --    24 C    1.619    32 N    0.200
    26   6 C    3.990 --    27 C    1.006    71 H    0.974    23 C    0.968
                            70 H    0.965
    27   6 C    3.913 --    29 C    1.567    28 N    1.142    26 C    1.006
                            30 C    0.109
    28   7 N    3.510 --    30 C    1.268    27 C    1.142    89 H    0.947
    29   6 C    3.945 --    27 C    1.567    31 N    1.262    72 H    0.971
    30   6 C    2.932 --    31 N    1.500    28 N    1.268    27 C    0.109
    31   7 N    2.926 --    30 C    1.500    29 C    1.262
    32   7 N    3.475 --    24 C    1.315    33 C    0.974    73 H    0.898
                            25 O    0.200
    33   6 C    3.967 --    36 C    0.978    32 N    0.974    74 H    0.951
                            34 C    0.940
    34   6 C    3.948 --    35 O    1.614    40 N    1.316    33 C    0.940
    35   8 O    1.941 --    34 C    1.614    40 N    0.196
    36   6 C    3.987 --    37 C    0.993    33 C    0.978    75 H    0.973
                            76 H    0.973
    37   6 C    3.993 --    38 C    1.007    39 C    1.004    36 C    0.993
                            77 H    0.970
    38   6 C    3.994 --    37 C    1.007    78 H    0.987    80 H    0.986
                            79 H    0.986
    39   6 C    3.996 --    37 C    1.004    81 H    0.989    82 H    0.987
                            83 H    0.985
    40   7 N    3.481 --    34 C    1.316    41 C    0.967    84 H    0.923
                            35 O    0.196
    41   6 C    3.966 --    44 C    0.967    40 N    0.967    42 C    0.963
                            85 H    0.961
    42   6 C    3.795 --    43 O    1.819    41 C    0.963    86 H    0.955
    43   8 O    1.941 --    42 C    1.819
    44   6 C    3.978 --    87 H    0.974    88 H    0.970    41 C    0.967
                            45 C    0.933
    45   6 C    3.946 --    46 O    1.496    47 O    1.495    44 C    0.933
    46   8 O    1.790 --    45 C    1.496    47 O    0.228
    47   8 O    1.791 --    45 C    1.495    46 O    0.228
    48   1 H    0.974 --     1 N    0.960
    49   1 H    0.977 --     1 N    0.962
    50   1 H    0.995 --     2 C    0.954
    51   1 H    0.999 --     3 C    0.952
    52   1 H    0.993 --     5 C    0.946
    53   1 H    0.997 --     5 C    0.968
    54   1 H    0.951 --     8 N    0.932
    55   1 H    0.946 --     8 N    0.910
    56   1 H    0.970 --     9 N    0.927
    57   1 H    0.975 --     9 N    0.958
    58   1 H    0.999 --    10 C    0.945
    59   1 H    0.993 --    13 C    0.972
    60   1 H    0.995 --    13 C    0.964
    61   1 H    0.952 --    16 N    0.934
    62   1 H    0.947 --    16 N    0.927
    63   1 H    0.955 --    17 N    0.907
    64   1 H    0.994 --    18 C    0.948
    65   1 H    0.996 --    21 C    0.982
    66   1 H    0.994 --    21 C    0.982
    67   1 H    0.996 --    21 C    0.981
    68   1 H    0.960 --    22 N    0.932
    69   1 H    0.995 --    23 C    0.942
    70   1 H    0.996 --    26 C    0.965
    71   1 H    0.998 --    26 C    0.974
    72   1 H    0.996 --    29 C    0.971
    73   1 H    0.950 --    32 N    0.898
    74   1 H    0.996 --    33 C    0.951
    75   1 H    0.996 --    36 C    0.973
    76   1 H    0.997 --    36 C    0.973
    77   1 H    0.998 --    37 C    0.970
    78   1 H    0.998 --    38 C    0.987
    79   1 H    0.998 --    38 C    0.986
    80   1 H    0.997 --    38 C    0.986
    81   1 H    0.998 --    39 C    0.989
    82   1 H    0.998 --    39 C    0.987
    83   1 H    0.999 --    39 C    0.985
    84   1 H    0.955 --    40 N    0.923
    85   1 H    0.996 --    41 C    0.961
    86   1 H    0.998 --    42 C    0.955
    87   1 H    0.998 --    44 C    0.974
    88   1 H    0.998 --    44 C    0.970
    89   1 H    0.984 --    28 N    0.947
 ---------------------------------------------------------------------------

Topologies differ in total number of bonds
Writing topology from bond orders to xtbtopo.mol

molecular dipole:
                 x           y           z       tot (Debye)
 q only:      -71.874     -58.324    -130.372
   full:      -72.447     -58.817    -130.980     408.769
molecular quadrupole (traceless):
                xx          xy          yy          xz          yz          zz
 q only:     2431.589   -3350.632    3793.482   -7114.312   -5796.381   -6225.070
  q+dip:     2429.919   -3417.072    3824.225   -7202.815   -5900.356   -6254.144
   full:     2431.526   -3418.538    3825.025   -7203.073   -5898.495   -6256.551


           -------------------------------------------------
          | TOTAL ENERGY             -149.701568221005 Eh   |
          | GRADIENT NORM               0.212389915120 Eh/α |
          | HOMO-LUMO GAP               0.094114855887 eV   |
           -------------------------------------------------
########################################################################
[WARNING] Runtime exception occurred
-2- restart_readRestart: Dimension missmatch in restart file.
-1- restart_readRestart: Number of electron missmatch in restart file.
########################################################################

------------------------------------------------------------------------
 * finished run on 2025/05/05 at 17:00:46.445     
------------------------------------------------------------------------
 total:
 * wall-time:     0 d,  0 h,  0 min,  0.683 sec
 *  cpu-time:     0 d,  0 h,  0 min, 14.722 sec
 * ratio c/w:    21.567 speedup
 SCF:
 * wall-time:     0 d,  0 h,  0 min,  0.675 sec
 *  cpu-time:     0 d,  0 h,  0 min, 14.576 sec
 * ratio c/w:    21.607 speedup

