      -----------------------------------------------------------      
     |                   =====================                   |     
     |                           x T B                           |     
     |                   =====================                   |     
     |                         S. Grimme                         |     
     |          Mulliken Center for Theoretical Chemistry        |     
     |                    University of Bonn                     |     
      -----------------------------------------------------------      

   * xtb version 6.7.1 (edcfbbe) compiled by 'conda@afd1a870197c' on 2025-04-11

   xtb is free software: you can redistribute it and/or modify it under
   the terms of the GNU Lesser General Public License as published by
   the Free Software Foundation, either version 3 of the License, or
   (at your option) any later version.
   
   xtb is distributed in the hope that it will be useful,
   but WITHOUT ANY WARRANTY; without even the implied warranty of
   MERCHANTABILITY or FITNESS FOR A PARTICULAR PURPOSE.  See the
   GNU Lesser General Public License for more details.
   
   Cite this work as:
   * C. Bannwarth, E. Caldeweyher, S. Ehlert, A. Hansen, P. Pracht,
     J. Seibert, S. Spicher, S. Grimme, WIREs Comput. Mol. Sci., 2020, 11,
     e01493. DOI: 10.1002/wcms.1493
   
   for GFN2-xTB:
   * C. Bannwarth, S. Ehlert and S. Grimme., J. Chem. Theory Comput., 2019,
     15, 1652-1671. DOI: 10.1021/acs.jctc.8b01176
   for GFN1-xTB:
   * S. Grimme, C. Bannwarth, P. Shushkov, J. Chem. Theory Comput., 2017,
     13, 1989-2009. DOI: 10.1021/acs.jctc.7b00118
   for GFN0-xTB:
   * P. Pracht, E. Caldeweyher, S. Ehlert, S. Grimme, ChemRxiv, 2019, preprint.
     DOI: 10.26434/chemrxiv.8326202.v1
   for GFN-FF:
   * S. Spicher and S. Grimme, Angew. Chem. Int. Ed., 2020, 59, 15665-15673.
     DOI: 10.1002/anie.202004239
   
   for ALPB and GBSA implicit solvation:
   * S. Ehlert, M. Stahn, S. Spicher, S. Grimme, J. Chem. Theory Comput.,
     2021, 17, 4250-4261. DOI: 10.1021/acs.jctc.1c00471
   
   for ddCOSMO and CPCM-X implicit solvation:
   * M. Stahn, S. Ehlert, S. Grimme, J. Phys. Chem. A,
     2023, XX, XXXX-XXXX. DOI: 10.1021/acs.jpca.3c04382
   
   for DFT-D4:
   * E. Caldeweyher, C. Bannwarth and S. Grimme, J. Chem. Phys., 2017,
     147, 034112. DOI: 10.1063/1.4993215
   * E. Caldeweyher, S. Ehlert, A. Hansen, H. Neugebauer, S. Spicher,
     C. Bannwarth and S. Grimme, J. Chem. Phys., 2019, 150, 154122.
     DOI: 10.1063/1.5090222
   * E. Caldeweyher, J.-M. Mewes, S. Ehlert and S. Grimme, Phys. Chem. Chem. Phys.
     2020, 22, 8499-8512. DOI: 10.1039/D0CP00502A
   
   for sTDA-xTB:
   * S. Grimme and C. Bannwarth, J. Chem. Phys., 2016, 145, 054103.
     DOI: 10.1063/1.4959605
   
   in the mass-spec context:
   * V. Asgeirsson, C. Bauer and S. Grimme, Chem. Sci., 2017, 8, 4879.
     DOI: 10.1039/c7sc00601b
   * J. Koopman and S. Grimme, ACS Omega 2019, 4, 12, 15120-15133.
     DOI: 10.1021/acsomega.9b02011
   
   for metadynamics refer to:
   * S. Grimme, J. Chem. Theory Comput., 2019, 155, 2847-2862
     DOI: 10.1021/acs.jctc.9b00143
   
   for SPH calculations refer to:
   * S. Spicher and S. Grimme, J. Chem. Theory Comput., 2021, 17, 1701-1714
     DOI: 10.1021/acs.jctc.0c01306
   
   for ONIOM refer to:
   * C. Plett, A. Katbashev, S. Ehlert, S. Grimme, M. Bursch,
     Phys. Chem. Chem. Phys., 2023, 25, 17860-17868. DOI: 10.1039/D3CP02178E
   
   for DIPRO refer to:
   * J. Kohn, N. Gildemeister, S. Grimme, D. Fazzi, A. Hansen,
     J. Chem. Phys., 2023, just accepted.
   
   for PTB refer to:
   * S. Grimme, M. Mueller, A. Hansen, J. Chem. Phys., 2023, 158, 124111.
     DOI: 10.1063/5.0137838
   
   with help from (in alphabetical order)
   P. Atkinson, C. Bannwarth, F. Bohle, G. Brandenburg, E. Caldeweyher
   M. Checinski, S. Dohm, S. Ehlert, S. Ehrlich, I. Gerasimov, C. Hölzer
   A. Katbashev, J. Kohn, J. Koopman, C. Lavigne, S. Lehtola, F. März, M. Müller,
   F. Musil, H. Neugebauer, J. Pisarek, C. Plett, P. Pracht, F. Pultar,
   J. Seibert, P. Shushkov, S. Spicher, M. Stahn, M. Steiner, T. Strunk,
   J. Stückrath, T. Rose, and J. Unsleber
   
 * started run on 2025/05/05 at 17:00:01.120     
   ID    Z sym.   atoms
    1    7 N      1, 6, 17, 28, 35, 36, 44, 52, 53, 61, 62, 68, 74, 77, 78,
                  86, 92, 103
    2    6 C      2, 3, 5, 7, 8, 10-16, 18, 19, 21-27, 29, 30, 32, 33, 37,
                  38, 40, 41, 45, 46, 48-50, 54, 55, 57-59, 63, 64, 66, 69,
                  70, 72, 73, 75, 76, 79, 80, 82-85, 87, 88, 90, 93, 94,
                  96-102, 104, 105, 107, 108
    3    8 O      4, 9, 20, 31, 34, 39, 42, 43, 47, 51, 56, 60, 65, 67, 71,
                  81, 89, 91, 95, 106, 109, 110
    4    1 H      111-219

           -------------------------------------------------
          |                Calculation Setup                |
           -------------------------------------------------

          program call               : xtb /tmp/tmpqa3nccml/HIE/input.xyz --alpb ether --chrg -5 --input /tmp/tmpqa3nccml/HIE/constraints.inp --gfn 2
          hostname                   : fedora
          coordinate file            : /tmp/tmpqa3nccml/HIE/input.xyz
          omp threads                :                    32


molecular fragmentation (1/2 indicates fragments):
111111111111111122222222222222222222222222222222222222222222222222222222
222222222222222222222222222222222222222222221111111111111111222222222222
222222222222222222222222222222222222222222222222222222222222222222222222
222
# atoms in fragment 1/2:    32   187
 fragment masses (1/2) :      220.27     1334.46
CMA distance (Bohr)    :  14.418
constraining FC (au)   :  0.0500
########################################################################
[WARNING] Please study the warnings concerning your input carefully
-1- readin_getIntValue: could not parse 'S'
########################################################################

           -------------------------------------------------
          |                 G F N 2 - x T B                 |
           -------------------------------------------------

        Reference                      10.1021/acs.jctc.8b01176
      * Hamiltonian:
        H0-scaling (s, p, d)           1.850000    2.230000    2.230000
        zeta-weighting                 0.500000
      * Dispersion:
        s8                             2.700000
        a1                             0.520000
        a2                             5.000000
        s9                             5.000000
      * Repulsion:
        kExp                           1.500000    1.000000
        rExp                           1.000000
      * Coulomb:
        alpha                          2.000000
        third order                    shell-resolved
        anisotropic                    true
        a3                             3.000000
        a5                             4.000000
        cn-shift                       1.200000
        cn-exp                         4.000000
        max-rad                        5.000000

      * Solvation model:               ALPB
        Solvent                        ether
        Parameter file                 internal GFN2-xTB/ALPB
        Dielectric constant                4.3300E+00
        Reference state                gsolv [1 M gas/solution]
        Free energy shift                  4.9534E-03 Eh       3.1083E+00 kcal/mol
        Temperature                        2.9815E+02 K
        Density                            7.1300E-01 kg/L
        Solvent mass                       7.4120E+01 g/mol
        Interaction kernel             P16
        Born radius scaling (c1)           1.5847E+00
        Born radii integrator          GBOBC
        Born offset                        0.0000E+00 a0       0.0000E+00 AA
        H-bond correction              true
        Ion screening                  false
        Surface tension                    1.0000E-05 Eh       1.5569E+01 dyn/cm
        Grid points                               230 per atom

          ...................................................
          :                      SETUP                      :
          :.................................................:
          :  # basis functions                 549          :
          :  # atomic orbitals                 549          :
          :  # shells                          329          :
          :  # electrons                       616          :
          :  max. iterations                   250          :
          :  Hamiltonian                  GFN2-xTB          :
          :  restarted?                      false          :
          :  GBSA solvation                   true          :
          :  PC potential                    false          :
          :  electronic temp.          300.0000000     K    :
          :  accuracy                    1.0000000          :
          :  -> integral cutoff          0.2500000E+02      :
          :  -> integral neglect         0.1000000E-07      :
          :  -> SCF convergence          0.1000000E-05 Eh   :
          :  -> wf. convergence          0.1000000E-03 e    :
          :  Broyden damping             0.4000000          :
          :  net charge                         -5          :
          :  unpaired electrons                  0          :
          ...................................................

 iter      E             dE          RMSdq      gap      omega  full diag
   1   -351.9934330 -0.351993E+03  0.457E+00    0.01       0.0  T
   2   -351.5615843  0.431849E+00  0.336E+00    1.17       1.0  T
   3   -352.5207233 -0.959139E+00  0.245E+00    0.24       1.0  T
   4   -352.6013902 -0.806668E-01  0.198E+00    0.50       1.0  T
   5   -352.7432939 -0.141904E+00  0.169E+00    0.31       1.0  T
   6   -352.9836623 -0.240368E+00  0.129E+00    0.05       1.0  T
   7   -352.9431387  0.405236E-01  0.131E+00    0.32       1.0  T
   8   -352.9219824  0.211563E-01  0.138E+00    0.66       1.0  T
   9   -352.8683005  0.536820E-01  0.141E+00    0.28       1.0  T
  10   -352.9479635 -0.796630E-01  0.123E+00    0.12       1.0  T
  11   -352.9720994 -0.241360E-01  0.124E+00    0.11       1.0  T
  12   -353.1622686 -0.190169E+00  0.869E-01    0.00       1.0  T
  13   -353.0726430  0.896256E-01  0.991E-01    0.13       1.0  T
  14   -353.2411246 -0.168482E+00  0.615E-01    0.02       1.0  T
  15   -353.3210654 -0.799408E-01  0.361E-01    0.02       1.0  T
  16   -353.3019346  0.191308E-01  0.421E-01    0.04       1.0  T
  17   -353.2303369  0.715977E-01  0.652E-01    0.04       1.0  T
  18   -353.2173982  0.129386E-01  0.717E-01    0.02       1.0  T
  19   -353.2997332 -0.823350E-01  0.428E-01    0.00       1.0  T
  20   -353.2494738  0.502594E-01  0.580E-01    0.01       1.0  T
  21   -353.2955332 -0.460594E-01  0.453E-01    0.00       1.0  T
  22   -353.2811014  0.144319E-01  0.511E-01    0.02       1.0  T
  23   -353.3131992 -0.320979E-01  0.382E-01    0.01       1.0  T
  24   -353.3493871 -0.361879E-01  0.115E-01    0.00       1.0  T
  25   -353.3433278  0.605933E-02  0.192E-01    0.02       1.0  T
  26   -353.3494912 -0.616347E-02  0.111E-01    0.01       1.0  T
  27   -353.3517864 -0.229517E-02  0.725E-02    0.01       1.0  T
  28   -353.3523730 -0.586573E-03  0.542E-02    0.00       1.0  T
  29   -353.3529818 -0.608854E-03  0.289E-02    0.00       1.0  T
  30   -353.3531951 -0.213277E-03  0.115E-02    0.00       1.0  T
  31   -353.3532047 -0.961195E-05  0.944E-03    0.00       1.0  T
  32   -353.3532177 -0.129933E-04  0.654E-03    0.00       1.0  T
  33   -353.3532199 -0.220296E-05  0.600E-03    0.00       1.1  T
  34   -353.3532241 -0.419988E-05  0.420E-03    0.00       1.6  T
  35   -353.3532279 -0.381011E-05  0.219E-03    0.00       3.1  T
  36   -353.3532287 -0.778928E-06  0.132E-03    0.00       5.1  T
  37   -353.3532291 -0.415839E-06  0.550E-04    0.00      12.3  T
  38   -353.3532292 -0.803532E-07  0.156E-04    0.00      43.2  T

   *** convergence criteria satisfied after 38 iterations ***

         #    Occupation            Energy/Eh            Energy/eV
      -------------------------------------------------------------
         1        2.0000           -0.6365238             -17.3207
       ...           ...                  ...                  ...
       302        2.0000           -0.2597652              -7.0686
       303        2.0000           -0.2526283              -6.8744
       304        2.0000           -0.2525280              -6.8716
       305        2.0000           -0.2077121              -5.6521
       306        2.0000           -0.2043690              -5.5612
       307        1.9747           -0.1551564              -4.2220
       308        0.5593           -0.1501197              -4.0850 (HOMO)
       309        0.5140           -0.1500100              -4.0820 (LUMO)
       310        0.3866           -0.1496612              -4.0725
       311        0.2439           -0.1491430              -4.0584
       312        0.1621           -0.1487114              -4.0466
       313        0.0862           -0.1480733              -4.0293
       ...           ...                  ...                  ...
       549                          0.9354573              25.4551
      -------------------------------------------------------------
                  HL-Gap            0.0001097 Eh            0.0030 eV
             Fermi-level           -0.1510185 Eh           -4.1094 eV

 SCC (total)                   0 d,  0 h,  0 min,  1.637 sec
 SCC setup                      ...        0 min,  0.003 sec (  0.194%)
 Dispersion                     ...        0 min,  0.009 sec (  0.522%)
 classical contributions        ...        0 min,  0.000 sec (  0.025%)
 integral evaluation            ...        0 min,  0.017 sec (  1.047%)
 iterations                     ...        0 min,  1.552 sec ( 94.841%)
 molecular gradient             ...        0 min,  0.053 sec (  3.236%)
 printout                       ...        0 min,  0.002 sec (  0.134%)

         :::::::::::::::::::::::::::::::::::::::::::::::::::::
         ::                     SUMMARY                     ::
         :::::::::::::::::::::::::::::::::::::::::::::::::::::
         :: total energy            -348.290821613317 Eh    ::
         :: total w/o Gsasa/hb      -348.211395872443 Eh    ::
         :: gradient norm              0.783983235451 Eh/a0 ::
         :: HOMO-LUMO gap              0.002985456206 eV    ::
         ::.................................................::
         :: SCC energy              -353.327225485912 Eh    ::
         :: -> isotropic ES            2.098033031828 Eh    ::
         :: -> anisotropic ES          0.027482630716 Eh    ::
         :: -> anisotropic XC          0.121278518258 Eh    ::
         :: -> dispersion             -0.302809210574 Eh    ::
         :: -> Gsolv                  -0.879408377419 Eh    ::
         ::    -> Gelec               -0.799982636545 Eh    ::
         ::    -> Gsasa               -0.071761711584 Eh    ::
         ::    -> Ghb                 -0.012617466868 Eh    ::
         ::    -> Gshift               0.004953437577 Eh    ::
         :: repulsion energy           5.036403872595 Eh    ::
         :: add. restraining           0.000000000000 Eh    ::
         :: total charge              -5.000000000218 e     ::
         :::::::::::::::::::::::::::::::::::::::::::::::::::::

           -------------------------------------------------
          |                Property Printout                |
           -------------------------------------------------

    * Orbital Energies and Occupations

         #    Occupation            Energy/Eh            Energy/eV
      -------------------------------------------------------------
         1        2.0000           -0.6365238             -17.3207
       ...           ...                  ...                  ...
       296        2.0000           -0.2922552              -7.9527
       297        2.0000           -0.2883971              -7.8477
       298        2.0000           -0.2815715              -7.6620
       299        2.0000           -0.2789828              -7.5915
       300        2.0000           -0.2776602              -7.5555
       301        2.0000           -0.2697659              -7.3407
       302        2.0000           -0.2597652              -7.0686
       303        2.0000           -0.2526283              -6.8744
       304        2.0000           -0.2525280              -6.8716
       305        2.0000           -0.2077121              -5.6521
       306        2.0000           -0.2043690              -5.5612
       307        1.9747           -0.1551564              -4.2220
       308        0.5593           -0.1501197              -4.0850 (HOMO)
       309        0.5140           -0.1500100              -4.0820 (LUMO)
       310        0.3866           -0.1496612              -4.0725
       311        0.2439           -0.1491430              -4.0584
       312        0.1621           -0.1487114              -4.0466
       313        0.0862           -0.1480733              -4.0293
       314        0.0344           -0.1471765              -4.0049
       315        0.0215           -0.1467209              -3.9925
       316        0.0098           -0.1459674              -3.9720
       317        0.0062           -0.1455368              -3.9603
       318        0.0012           -0.1439519              -3.9171
       319        0.0001           -0.1418833              -3.8608
       ...           ...                  ...                  ...
       549                          0.9354573              25.4551
      -------------------------------------------------------------
                  HL-Gap            0.0001097 Eh            0.0030 eV
             Fermi-level           -0.1510185 Eh           -4.1094 eV

     #   Z          covCN         q      C6AA      α(0)
     1   7 N        2.630    -0.375    29.680     8.091
     2   6 C        3.785     0.031    20.070     6.381
     3   6 C        2.751     0.270    22.434     7.756
     4   8 O        0.860    -0.509    23.975     6.565
     5   6 C        3.760    -0.096    22.377     6.744
     6   7 N        2.688    -0.186    25.040     7.432
     7   6 C        3.794     0.031    20.062     6.378
     8   6 C        2.765     0.126    25.229     8.226
     9   8 O        0.856    -0.524    24.335     6.614
    10   6 C        3.817    -0.069    21.802     6.645
    11   6 C        2.972     0.001    27.998     8.679
    12   6 C        2.935    -0.051    29.273     8.873
    13   6 C        2.936    -0.040    28.993     8.831
    14   6 C        2.926    -0.043    29.071     8.842
    15   6 C        2.925    -0.023    28.590     8.769
    16   6 C        2.928    -0.037    28.912     8.818
    17   7 N        2.642    -0.366    29.447     8.059
    18   6 C        3.792     0.058    19.621     6.308
    19   6 C        2.780     0.121    25.318     8.241
    20   8 O        0.856    -0.525    24.353     6.616
    21   6 C        3.823    -0.062    21.667     6.624
    22   6 C        2.972    -0.001    28.049     8.687
    23   6 C        2.925    -0.044    29.102     8.847
    24   6 C        2.928    -0.052    29.298     8.877
    25   6 C        2.918    -0.030    28.744     8.792
    26   6 C        2.921    -0.046    29.135     8.852
    27   6 C        2.921    -0.039    28.962     8.825
    28   7 N        2.642    -0.356    29.168     8.021
    29   6 C        3.784     0.035    20.001     6.370
    30   6 C        2.767     0.159    24.540     8.113
    31   8 O        0.856    -0.476    23.253     6.465
    32   6 C        3.815    -0.090    22.202     6.706
    33   6 C        2.742     0.293    22.026     7.684
    34   8 O        0.859    -0.506    23.908     6.556
    35   7 N        2.639    -0.287    27.408     7.775
    36   7 N        2.631    -0.357    29.213     8.027
    37   6 C        3.787     0.039    19.932     6.359
    38   6 C        2.756     0.272    22.410     7.752
    39   8 O        0.859    -0.519    24.202     6.596
    40   6 C        3.805    -0.102    22.439     6.744
    41   6 C        2.686     0.361    20.867     7.476
    42   8 O        0.856    -0.643    27.192     6.991
    43   8 O        0.857    -0.631    26.903     6.954
    44   7 N        2.690    -0.192    25.168     7.451
    45   6 C        3.799     0.028    20.097     6.383
    46   6 C        2.757     0.271    22.428     7.755
    47   8 O        0.859    -0.464    23.012     6.432
    48   6 C        3.809    -0.068    21.796     6.646
    49   6 C        3.808    -0.100    22.409     6.739
    50   6 C        2.742     0.254    22.724     7.805
    51   8 O        0.858    -0.555    25.029     6.708
    52   7 N        2.638    -0.305    27.849     7.838
    53   7 N        2.687    -0.171    24.706     7.382
    54   6 C        3.792     0.024    20.174     6.396
    55   6 C        2.751     0.267    22.490     7.765
    56   8 O        0.858    -0.522    24.279     6.606
    57   6 C        3.807    -0.057    21.590     6.615
    58   6 C        3.808    -0.096    22.328     6.727
    59   6 C        2.742     0.275    22.347     7.740
    60   8 O        0.859    -0.501    23.798     6.541
    61   7 N        2.639    -0.292    27.530     7.793
    62   7 N        2.684    -0.183    24.959     7.420
    63   6 C        3.795     0.019    20.266     6.410
    64   6 C        2.755     0.279    22.280     7.729
    65   8 O        0.860    -0.509    23.992     6.567
    66   6 C        3.681     0.075    19.530     6.329
    67   8 O        1.655    -0.480    22.458     6.397
    68   7 N        2.688    -0.171    24.712     7.383
    69   6 C        3.797     0.040    19.901     6.352
    70   6 C        2.750     0.270    22.438     7.756
    71   8 O        0.857    -0.520    24.232     6.600
    72   6 C        3.809    -0.048    21.422     6.588
    73   6 C        3.084     0.005    27.812     8.645
    74   7 N        1.995    -0.468    33.309     8.560
    75   6 C        3.060    -0.039    28.910     8.817
    76   6 C        2.105    -0.206    36.839     9.807
    77   7 N        2.842    -0.146    24.160     7.300
    78   7 N        2.689    -0.170    24.684     7.379
    79   6 C        3.796     0.028    20.105     6.385
    80   6 C        2.757     0.272    22.400     7.750
    81   8 O        0.860    -0.492    23.607     6.514
    82   6 C        3.809    -0.076    21.937     6.667
    83   6 C        3.852    -0.008    20.678     6.468
    84   6 C        3.762    -0.112    22.689     6.790
    85   6 C        3.762    -0.102    22.501     6.762
    86   7 N        2.692    -0.185    25.018     7.429
    87   6 C        3.798     0.015    20.334     6.421
    88   6 C        2.758     0.262    22.585     7.782
    89   8 O        0.858    -0.505    23.895     6.554
    90   6 C        3.690     0.078    19.466     6.314
    91   8 O        1.656    -0.457    21.995     6.331
    92   7 N        2.691    -0.178    24.847     7.403
    93   6 C        3.805     0.036    19.962     6.361
    94   6 C        2.754     0.272    22.395     7.749
    95   8 O        0.858    -0.507    23.948     6.561
    96   6 C        3.820    -0.064    21.716     6.632
    97   6 C        2.973     0.009    27.821     8.652
    98   6 C        2.933    -0.036    28.886     8.814
    99   6 C        2.932    -0.047    29.179     8.859
   100   6 C        2.924    -0.036    28.903     8.816
   101   6 C        2.924    -0.049    29.209     8.863
   102   6 C        2.929    -0.048    29.199     8.862
   103   7 N        2.686    -0.176    24.818     7.399
   104   6 C        3.791     0.043    19.869     6.348
   105   6 C        2.765     0.115    25.439     8.260
   106   8 O        0.856    -0.462    22.952     6.423
   107   6 C        3.805    -0.086    22.131     6.697
   108   6 C        2.684     0.363    20.850     7.472
   109   8 O        0.856    -0.635    26.996     6.966
   110   8 O        0.856    -0.636    27.032     6.971
   111   1 H        0.980     0.075     2.028     2.226
   112   1 H        0.980     0.017     2.765     2.598
   113   1 H        0.980     0.015     2.798     2.614
   114   1 H        0.980     0.014     2.815     2.622
   115   1 H        0.980     0.012     2.849     2.638
   116   1 H        0.980     0.010     2.878     2.651
   117   1 H        0.860     0.167     1.289     1.778
   118   1 H        0.860     0.148     1.415     1.864
   119   1 H        0.927     0.052     2.293     2.368
   120   1 H        0.927     0.030     2.593     2.518
   121   1 H        0.927     0.050     2.316     2.380
   122   1 H        0.927     0.036     2.498     2.472
   123   1 H        0.861     0.200     1.105     1.646
   124   1 H        0.927     0.060     2.202     2.321
   125   1 H        0.929    -0.023     3.488     2.920
   126   1 H        0.926     0.067     2.120     2.277
   127   1 H        0.926     0.045     2.387     2.416
   128   1 H        0.929     0.030     2.585     2.514
   129   1 H        0.929     0.031     2.565     2.504
   130   1 H        0.929     0.031     2.571     2.507
   131   1 H        0.929     0.029     2.607     2.525
   132   1 H        0.929     0.019     2.751     2.594
   133   1 H        0.860     0.144     1.441     1.880
   134   1 H        0.860     0.145     1.436     1.877
   135   1 H        0.927    -0.024     3.504     2.927
   136   1 H        0.929    -0.043     3.924     3.097
   137   1 H        0.926     0.048     2.348     2.396
   138   1 H        0.927     0.033     2.544     2.494
   139   1 H        0.929     0.026     2.650     2.545
   140   1 H        0.929     0.030     2.583     2.513
   141   1 H        0.929     0.033     2.543     2.493
   142   1 H        0.929     0.029     2.603     2.523
   143   1 H        0.929     0.023     2.685     2.562
   144   1 H        0.860     0.145     1.433     1.875
   145   1 H        0.860     0.145     1.434     1.876
   146   1 H        0.926     0.027     2.622     2.532
   147   1 H        0.929    -0.014     3.318     2.849
   148   1 H        0.927     0.076     2.021     2.223
   149   1 H        0.927     0.060     2.197     2.318
   150   1 H        0.861     0.226     0.981     1.551
   151   1 H        0.861     0.221     1.006     1.571
   152   1 H        0.860     0.154     1.372     1.835
   153   1 H        0.860     0.148     1.417     1.865
   154   1 H        0.927     0.040     2.455     2.450
   155   1 H        0.927     0.033     2.549     2.497
   156   1 H        0.927     0.029     2.595     2.519
   157   1 H        0.861     0.198     1.118     1.656
   158   1 H        0.927     0.077     2.015     2.220
   159   1 H        0.927     0.077     2.010     2.217
   160   1 H        0.927     0.049     2.326     2.385
   161   1 H        0.927     0.067     2.119     2.276
   162   1 H        0.926     0.068     2.103     2.268
   163   1 H        0.861     0.205     1.079     1.627
   164   1 H        0.861     0.209     1.061     1.613
   165   1 H        0.861     0.200     1.107     1.648
   166   1 H        0.927     0.100     1.786     2.090
   167   1 H        0.927     0.061     2.185     2.311
   168   1 H        0.927     0.065     2.137     2.286
   169   1 H        0.927     0.061     2.185     2.311
   170   1 H        0.927     0.062     2.178     2.308
   171   1 H        0.861     0.220     1.011     1.575
   172   1 H        0.861     0.225     0.986     1.555
   173   1 H        0.861     0.212     1.046     1.602
   174   1 H        0.927     0.073     2.049     2.238
   175   1 H        0.927     0.061     2.183     2.310
   176   1 H        0.927     0.065     2.147     2.291
   177   1 H        0.804     0.326     0.649     1.265
   178   1 H        0.861     0.217     1.021     1.583
   179   1 H        0.927     0.055     2.253     2.347
   180   1 H        0.927     0.028     2.620     2.531
   181   1 H        0.927     0.014     2.829     2.630
   182   1 H        0.929    -0.075     4.770     3.415
   183   1 H        0.861     0.204     1.085     1.631
   184   1 H        0.927     0.073     2.053     2.241
   185   1 H        0.927     0.059     2.210     2.325
   186   1 H        0.927     0.053     2.285     2.364
   187   1 H        0.927     0.031     2.567     2.506
   188   1 H        0.927     0.045     2.388     2.416
   189   1 H        0.927     0.038     2.480     2.463
   190   1 H        0.927     0.047     2.358     2.401
   191   1 H        0.926     0.039     2.463     2.454
   192   1 H        0.927     0.037     2.488     2.467
   193   1 H        0.927     0.028     2.612     2.527
   194   1 H        0.861     0.217     1.024     1.585
   195   1 H        0.927     0.083     1.947     2.182
   196   1 H        0.927     0.034     2.530     2.487
   197   1 H        0.927     0.071     2.076     2.253
   198   1 H        0.804     0.325     0.650     1.266
   199   1 H        0.861     0.219     1.014     1.577
   200   1 H        0.927     0.071     2.077     2.254
   201   1 H        0.927     0.045     2.388     2.417
   202   1 H        0.927     0.062     2.175     2.306
   203   1 H        0.929     0.027     2.623     2.532
   204   1 H        0.929     0.036     2.508     2.476
   205   1 H        0.929     0.036     2.496     2.471
   206   1 H        0.929     0.040     2.449     2.447
   207   1 H        0.929     0.038     2.476     2.461
   208   1 H        0.861     0.195     1.132     1.666
   209   1 H        0.927     0.060     2.196     2.318
   210   1 H        0.929     0.065     2.145     2.290
   211   1 H        0.927     0.032     2.552     2.498
   212   1 H        0.927     0.038     2.482     2.463
   213   1 H        0.980     0.015     2.797     2.613
   214   1 H        0.980    -0.019     3.391     2.878
   215   1 H        0.980    -0.013     3.288     2.833
   216   1 H        0.980    -0.017     3.366     2.867
   217   1 H        0.980    -0.014     3.309     2.843
   218   1 H        0.980    -0.011     3.247     2.816
   219   1 H        0.858     0.090     1.897     2.158

 Mol. C6AA /au·bohr⁶  :     490913.947330
 Mol. C8AA /au·bohr⁸  :   10936000.056716
 Mol. α(0) /au        :       1062.134091


Wiberg/Mayer (AO) data.
largest (>0.10) Wiberg bond orders for each atom

 ---------------------------------------------------------------------------
     #   Z sym  total        # sym  WBO       # sym  WBO       # sym  WBO
 ---------------------------------------------------------------------------
     1   7 N    2.991 --     2 C    1.016   117 H    0.956   118 H    0.955
     2   6 C    3.985 --     1 N    1.016     5 C    0.987   119 H    0.958
                             3 C    0.939
     3   6 C    3.943 --     4 O    1.638     6 N    1.297     2 C    0.939
     4   8 O    1.948 --     3 C    1.638     6 N    0.196
     5   6 C    3.994 --     2 C    0.987   120 H    0.986   121 H    0.982
                           122 H    0.982
     6   7 N    3.457 --     3 C    1.297     7 C    0.967   123 H    0.922
                             4 O    0.196
     7   6 C    3.950 --     8 C    0.967     6 N    0.967    10 C    0.959
                           124 H    0.941
     8   6 C    3.524 --     9 O    1.557     7 C    0.967   125 H    0.952
     9   8 O    1.674 --     8 C    1.557
    10   6 C    3.983 --    11 C    1.013   127 H    0.975   126 H    0.964
                             7 C    0.959
    11   6 C    3.974 --    13 C    1.419    12 C    1.394    10 C    1.013
                            16 C    0.102
    12   6 C    3.989 --    14 C    1.461    11 C    1.394   128 H    0.972
                            15 C    0.109
    13   6 C    3.984 --    15 C    1.430    11 C    1.419   129 H    0.973
                            14 C    0.111
    14   6 C    3.988 --    12 C    1.461    16 C    1.416   130 H    0.970
                            13 C    0.111
    15   6 C    3.992 --    16 C    1.452    13 C    1.430   131 H    0.974
                            12 C    0.109
    16   6 C    3.977 --    15 C    1.452    14 C    1.416   132 H    0.972
                            11 C    0.102
    17   7 N    2.975 --    18 C    0.995   133 H    0.965   134 H    0.963
    18   6 C    3.982 --    17 N    0.995    19 C    0.986   135 H    0.965
                            21 C    0.959
    19   6 C    3.542 --    20 O    1.555    18 C    0.986   136 H    0.954
    20   8 O    1.657 --    19 C    1.555
    21   6 C    3.984 --    22 C    1.016   137 H    0.973   138 H    0.968
                            18 C    0.959
    22   6 C    3.972 --    24 C    1.424    23 C    1.380    21 C    1.016
                            27 C    0.103
    23   6 C    3.969 --    25 C    1.450    22 C    1.380   139 H    0.971
                            26 C    0.103
    24   6 C    3.993 --    26 C    1.432    22 C    1.424   140 H    0.972
                            25 C    0.109
    25   6 C    3.992 --    23 C    1.450    27 C    1.432   141 H    0.970
                            24 C    0.109
    26   6 C    3.971 --    24 C    1.432    27 C    1.429   142 H    0.975
                            23 C    0.103
    27   6 C    3.976 --    25 C    1.432    26 C    1.429   143 H    0.973
                            22 C    0.103
    28   7 N    2.990 --    29 C    1.008   144 H    0.963   145 H    0.959
    29   6 C    3.983 --    28 N    1.008    32 C    0.988    30 C    0.962
                           146 H    0.927
    30   6 C    3.618 --    31 O    1.664    29 C    0.962   147 H    0.951
    31   8 O    1.781 --    30 C    1.664
    32   6 C    3.994 --    29 C    0.988   148 H    0.972    33 C    0.967
                           149 H    0.951
    33   6 C    3.941 --    34 O    1.640    35 N    1.304    32 C    0.967
    34   8 O    1.933 --    33 C    1.640    35 N    0.190
    35   7 N    3.396 --    33 C    1.304   151 H    0.917   150 H    0.852
                            34 O    0.190
    36   7 N    3.001 --    37 C    1.019   152 H    0.962   153 H    0.953
    37   6 C    3.988 --    36 N    1.019    40 C    0.973    38 C    0.954
                           154 H    0.951
    38   6 C    3.912 --    39 O    1.577    44 N    1.289    37 C    0.954
    39   8 O    1.909 --    38 C    1.577    44 N    0.173
    40   6 C    3.988 --   155 H    0.974    37 C    0.973   156 H    0.950
                            41 C    0.928
    41   6 C    3.940 --    43 O    1.508    42 O    1.481    40 C    0.928
    42   8 O    1.805 --    41 C    1.481    43 O    0.217
    43   8 O    1.799 --    41 C    1.508    42 O    0.217
    44   7 N    3.444 --    38 C    1.289    45 C    0.974   157 H    0.900
                            39 O    0.173
    45   6 C    3.961 --    48 C    0.978    44 N    0.974   158 H    0.951
                            46 C    0.935
    46   6 C    3.950 --    47 O    1.657    53 N    1.284    45 C    0.935
    47   8 O    1.981 --    46 C    1.657    53 N    0.200
    48   6 C    3.984 --    49 C    0.997    45 C    0.978   159 H    0.972
                           160 H    0.967
    49   6 C    3.993 --    48 C    0.997   161 H    0.976    50 C    0.966
                           162 H    0.958
    50   6 C    3.782 --    51 O    1.546    52 N    1.227    49 C    0.966
    51   8 O    1.805 --    50 C    1.546    52 N    0.161
    52   7 N    3.304 --    50 C    1.227   164 H    0.935   163 H    0.930
                            51 O    0.161
    53   7 N    3.466 --    46 C    1.284    54 C    0.981   165 H    0.914
                            47 O    0.200
    54   6 C    3.961 --    57 C    0.981    53 N    0.981    55 C    0.939
                           166 H    0.936
    55   6 C    3.911 --    56 O    1.580    62 N    1.310    54 C    0.939
    56   8 O    1.897 --    55 C    1.580    62 N    0.182
    57   6 C    3.988 --    58 C    0.989    54 C    0.981   167 H    0.976
                           168 H    0.973
    58   6 C    3.995 --    57 C    0.989   169 H    0.973    59 C    0.968
                           170 H    0.966
    59   6 C    3.913 --    60 O    1.643    61 N    1.279    58 C    0.968
    60   8 O    1.932 --    59 C    1.643    61 N    0.192
    61   7 N    3.364 --    59 C    1.279   171 H    0.933   172 H    0.929
                            60 O    0.192
    62   7 N    3.458 --    55 C    1.310    63 C    0.971   173 H    0.904
                            56 O    0.182
    63   6 C    3.964 --    62 N    0.971    66 C    0.964   174 H    0.953
                            64 C    0.943
    64   6 C    3.930 --    65 O    1.580    68 N    1.324    63 C    0.943
    65   8 O    1.924 --    64 C    1.580    68 N    0.192
    66   6 C    3.956 --    67 O    1.009   176 H    0.970    63 C    0.964
                           175 H    0.958
    67   8 O    1.941 --    66 C    1.009   177 H    0.800
    68   7 N    3.487 --    64 C    1.324    69 C    0.974   178 H    0.910
                            65 O    0.192
    69   6 C    3.962 --    68 N    0.974    72 C    0.965   179 H    0.953
                            70 C    0.937
    70   6 C    3.935 --    71 O    1.598    78 N    1.317    69 C    0.937
    71   8 O    1.912 --    70 C    1.598    78 N    0.189
    72   6 C    3.979 --    73 C    0.992   181 H    0.975    69 C    0.965
                           180 H    0.964
    73   6 C    3.959 --    75 C    1.571    74 N    1.249    72 C    0.992
    74   7 N    2.934 --    76 C    1.471    73 C    1.249
    75   6 C    3.930 --    73 C    1.571    77 N    1.151   182 H    0.967
                            76 C    0.117
    76   6 C    2.907 --    74 N    1.471    77 N    1.249    75 C    0.117
    77   7 N    3.499 --    76 C    1.249    75 C    1.151   219 H    0.955
    78   7 N    3.475 --    70 C    1.317    79 C    0.968   183 H    0.921
                            71 O    0.189
    79   6 C    3.957 --    82 C    0.977    78 N    0.968   184 H    0.953
                            80 C    0.933
    80   6 C    3.936 --    81 O    1.623    86 N    1.300    79 C    0.933
    81   8 O    1.942 --    80 C    1.623    86 N    0.194
    82   6 C    3.988 --    83 C    0.989    79 C    0.977   185 H    0.975
                           186 H    0.975
    83   6 C    3.993 --    85 C    1.011    84 C    1.006    82 C    0.989
                           187 H    0.967
    84   6 C    3.996 --    83 C    1.006   189 H    0.987   188 H    0.987
                           190 H    0.986
    85   6 C    3.997 --    83 C    1.011   191 H    0.987   192 H    0.985
                           193 H    0.983
    86   7 N    3.460 --    80 C    1.300    87 C    0.978   194 H    0.907
                            81 O    0.194
    87   6 C    3.963 --    86 N    0.978    90 C    0.976   195 H    0.953
                            88 C    0.924
    88   6 C    3.926 --    89 O    1.597    92 N    1.324    87 C    0.924
    89   8 O    1.914 --    88 C    1.597    92 N    0.198
    90   6 C    3.960 --    91 O    1.009    87 C    0.976   196 H    0.968
                           197 H    0.968
    91   8 O    1.943 --    90 C    1.009   198 H    0.874
    92   7 N    3.479 --    88 C    1.324    93 C    0.974   199 H    0.894
                            89 O    0.198
    93   6 C    3.964 --    92 N    0.974    96 C    0.971   200 H    0.957
                            94 C    0.931
    94   6 C    3.941 --    95 O    1.607   103 N    1.327    93 C    0.931
    95   8 O    1.922 --    94 C    1.607   103 N    0.202
    96   6 C    3.991 --    97 C    1.007    93 C    0.971   201 H    0.970
                           202 H    0.964
    97   6 C    3.976 --    99 C    1.417    98 C    1.407    96 C    1.007
                           102 C    0.105
    98   6 C    3.972 --   100 C    1.435    97 C    1.407   203 H    0.972
                           101 C    0.107
    99   6 C    3.984 --   101 C    1.438    97 C    1.417   204 H    0.972
                           100 C    0.107
   100   6 C    3.986 --   102 C    1.445    98 C    1.435   205 H    0.974
                            99 C    0.107
   101   6 C    3.971 --    99 C    1.438   102 C    1.425   206 H    0.974
                            98 C    0.107
   102   6 C    3.981 --   100 C    1.445   101 C    1.425   207 H    0.974
                            97 C    0.105
   103   7 N    3.484 --    94 C    1.327   104 C    0.958   208 H    0.921
                            95 O    0.202
   104   6 C    3.952 --   107 C    0.973   105 C    0.965   103 N    0.958
                           209 H    0.951
   105   6 C    3.689 --   106 O    1.717   104 C    0.965   210 H    0.863
   106   8 O    1.839 --   105 C    1.717
   107   6 C    3.973 --   104 C    0.973   212 H    0.971   211 H    0.966
                           108 C    0.914
   108   6 C    3.938 --   110 O    1.503   109 O    1.499   107 C    0.914
   109   8 O    1.797 --   108 C    1.499   110 O    0.219
   110   8 O    1.794 --   108 C    1.503   109 O    0.219
   111   1 H    0.994 --   213 H    0.884
   112   1 H    1.000 --   214 H    0.992
   113   1 H    1.000 --   215 H    0.964
   114   1 H    1.000 --   216 H    0.989
   115   1 H    1.000 --   217 H    0.991
   116   1 H    1.000 --   218 H    0.976
   117   1 H    0.972 --     1 N    0.956
   118   1 H    0.978 --     1 N    0.955
   119   1 H    0.997 --     2 C    0.958
   120   1 H    0.999 --     5 C    0.986
   121   1 H    0.997 --     5 C    0.982
   122   1 H    0.999 --     5 C    0.982
   123   1 H    0.960 --     6 N    0.922
   124   1 H    0.980 --     7 C    0.941
   125   1 H    0.998 --     8 C    0.952
   126   1 H    0.995 --    10 C    0.964
   127   1 H    0.998 --    10 C    0.975
   128   1 H    0.999 --    12 C    0.972
   129   1 H    0.999 --    13 C    0.973
   130   1 H    0.999 --    14 C    0.970
   131   1 H    0.999 --    15 C    0.974
   132   1 H    0.999 --    16 C    0.972
   133   1 H    0.978 --    17 N    0.965
   134   1 H    0.977 --    17 N    0.963
   135   1 H    0.999 --    18 C    0.965
   136   1 H    0.998 --    19 C    0.954
   137   1 H    0.997 --    21 C    0.973
   138   1 H    0.998 --    21 C    0.968
   139   1 H    0.999 --    23 C    0.971
   140   1 H    0.999 --    24 C    0.972
   141   1 H    0.999 --    25 C    0.970
   142   1 H    0.999 --    26 C    0.975
   143   1 H    0.999 --    27 C    0.973
   144   1 H    0.978 --    28 N    0.963
   145   1 H    0.977 --    28 N    0.959
   146   1 H    0.990 --    29 C    0.927
   147   1 H    1.000 --    30 C    0.951
   148   1 H    0.994 --    32 C    0.972
   149   1 H    0.996 --    32 C    0.951
   150   1 H    0.949 --    35 N    0.852
   151   1 H    0.951 --    35 N    0.917
   152   1 H    0.976 --    36 N    0.962
   153   1 H    0.978 --    36 N    0.953
   154   1 H    0.997 --    37 C    0.951
   155   1 H    0.999 --    40 C    0.974
   156   1 H    0.999 --    40 C    0.950
   157   1 H    0.961 --    44 N    0.900
   158   1 H    0.994 --    45 C    0.951
   159   1 H    0.993 --    48 C    0.972
   160   1 H    0.998 --    48 C    0.967
   161   1 H    0.995 --    49 C    0.976
   162   1 H    0.989 --    49 C    0.958
   163   1 H    0.958 --    52 N    0.930
   164   1 H    0.956 --    52 N    0.935
   165   1 H    0.960 --    53 N    0.914
   166   1 H    0.988 --    54 C    0.936
   167   1 H    0.996 --    57 C    0.976
   168   1 H    0.996 --    57 C    0.973
   169   1 H    0.996 --    58 C    0.973
   170   1 H    0.995 --    58 C    0.966
   171   1 H    0.952 --    61 N    0.933
   172   1 H    0.949 --    61 N    0.929
   173   1 H    0.955 --    62 N    0.904
   174   1 H    0.994 --    63 C    0.953
   175   1 H    0.996 --    66 C    0.958
   176   1 H    0.995 --    66 C    0.970
   177   1 H    0.894 --    67 O    0.800
   178   1 H    0.953 --    68 N    0.910
   179   1 H    0.996 --    69 C    0.953
   180   1 H    0.999 --    72 C    0.964
   181   1 H    0.999 --    72 C    0.975
   182   1 H    0.994 --    75 C    0.967
   183   1 H    0.958 --    78 N    0.921
   184   1 H    0.994 --    79 C    0.953
   185   1 H    0.996 --    82 C    0.975
   186   1 H    0.997 --    82 C    0.975
   187   1 H    0.999 --    83 C    0.967
   188   1 H    0.998 --    84 C    0.987
   189   1 H    0.999 --    84 C    0.987
   190   1 H    0.997 --    84 C    0.986
   191   1 H    0.998 --    85 C    0.987
   192   1 H    0.999 --    85 C    0.985
   193   1 H    0.999 --    85 C    0.983
   194   1 H    0.953 --    86 N    0.907
   195   1 H    0.993 --    87 C    0.953
   196   1 H    0.999 --    90 C    0.968
   197   1 H    0.995 --    90 C    0.968
   198   1 H    0.894 --    91 O    0.874
   199   1 H    0.952 --    92 N    0.894
   200   1 H    0.994 --    93 C    0.957
   201   1 H    0.998 --    96 C    0.970
   202   1 H    0.996 --    96 C    0.964
   203   1 H    0.999 --    98 C    0.972
   204   1 H    0.999 --    99 C    0.972
   205   1 H    0.998 --   100 C    0.974
   206   1 H    0.998 --   101 C    0.974
   207   1 H    0.998 --   102 C    0.974
   208   1 H    0.962 --   103 N    0.921
   209   1 H    0.995 --   104 C    0.951
   210   1 H    0.996 --   105 C    0.863
   211   1 H    0.998 --   107 C    0.966
   212   1 H    0.998 --   107 C    0.971
   213   1 H    0.999 --   111 H    0.884
   214   1 H    1.000 --   112 H    0.992
   215   1 H    1.000 --   113 H    0.964
   216   1 H    1.000 --   114 H    0.989
   217   1 H    1.000 --   115 H    0.991
   218   1 H    1.000 --   116 H    0.976
   219   1 H    0.992 --    77 N    0.955
 ---------------------------------------------------------------------------

Topologies differ in total number of bonds
Writing topology from bond orders to xtbtopo.mol

molecular dipole:
                 x           y           z       tot (Debye)
 q only:       78.595     177.988    -134.313
   full:       78.958     177.853    -135.752     603.067
molecular quadrupole (traceless):
                xx          xy          yy          xz          yz          zz
 q only:     3753.022   -4336.968   -3565.636    3063.088    7143.158    -187.386
  q+dip:     3741.454   -4374.177   -3495.005    3092.260    7189.315    -246.450
   full:     3738.410   -4374.550   -3493.916    3093.057    7190.973    -244.494


           -------------------------------------------------
          | TOTAL ENERGY             -348.290821613317 Eh   |
          | GRADIENT NORM               0.783983235451 Eh/α |
          | HOMO-LUMO GAP               0.002985456206 eV   |
           -------------------------------------------------
########################################################################
[WARNING] Runtime exception occurred
-3- restart_readRestart: Dimension missmatch in restart file.
-2- restart_readRestart: Multiplicity missmatch in restart file.
-1- restart_readRestart: Number of electron missmatch in restart file.
########################################################################

------------------------------------------------------------------------
 * finished run on 2025/05/05 at 17:00:02.783     
------------------------------------------------------------------------
 total:
 * wall-time:     0 d,  0 h,  0 min,  1.663 sec
 *  cpu-time:     0 d,  0 h,  0 min, 49.742 sec
 * ratio c/w:    29.911 speedup
 SCF:
 * wall-time:     0 d,  0 h,  0 min,  1.640 sec
 *  cpu-time:     0 d,  0 h,  0 min, 49.122 sec
 * ratio c/w:    29.957 speedup

