      -----------------------------------------------------------      
     |                   =====================                   |     
     |                           x T B                           |     
     |                   =====================                   |     
     |                         S. Grimme                         |     
     |          Mulliken Center for Theoretical Chemistry        |     
     |                    University of Bonn                     |     
      -----------------------------------------------------------      

   * xtb version 6.7.1 (edcfbbe) compiled by 'conda@afd1a870197c' on 2025-04-11

   xtb is free software: you can redistribute it and/or modify it under
   the terms of the GNU Lesser General Public License as published by
   the Free Software Foundation, either version 3 of the License, or
   (at your option) any later version.
   
   xtb is distributed in the hope that it will be useful,
   but WITHOUT ANY WARRANTY; without even the implied warranty of
   MERCHANTABILITY or FITNESS FOR A PARTICULAR PURPOSE.  See the
   GNU Lesser General Public License for more details.
   
   Cite this work as:
   * C. Bannwarth, E. Caldeweyher, S. Ehlert, A. Hansen, P. Pracht,
     J. Seibert, S. Spicher, S. Grimme, WIREs Comput. Mol. Sci., 2020, 11,
     e01493. DOI: 10.1002/wcms.1493
   
   for GFN2-xTB:
   * C. Bannwarth, S. Ehlert and S. Grimme., J. Chem. Theory Comput., 2019,
     15, 1652-1671. DOI: 10.1021/acs.jctc.8b01176
   for GFN1-xTB:
   * S. Grimme, C. Bannwarth, P. Shushkov, J. Chem. Theory Comput., 2017,
     13, 1989-2009. DOI: 10.1021/acs.jctc.7b00118
   for GFN0-xTB:
   * P. Pracht, E. Caldeweyher, S. Ehlert, S. Grimme, ChemRxiv, 2019, preprint.
     DOI: 10.26434/chemrxiv.8326202.v1
   for GFN-FF:
   * S. Spicher and S. Grimme, Angew. Chem. Int. Ed., 2020, 59, 15665-15673.
     DOI: 10.1002/anie.202004239
   
   for ALPB and GBSA implicit solvation:
   * S. Ehlert, M. Stahn, S. Spicher, S. Grimme, J. Chem. Theory Comput.,
     2021, 17, 4250-4261. DOI: 10.1021/acs.jctc.1c00471
   
   for ddCOSMO and CPCM-X implicit solvation:
   * M. Stahn, S. Ehlert, S. Grimme, J. Phys. Chem. A,
     2023, XX, XXXX-XXXX. DOI: 10.1021/acs.jpca.3c04382
   
   for DFT-D4:
   * E. Caldeweyher, C. Bannwarth and S. Grimme, J. Chem. Phys., 2017,
     147, 034112. DOI: 10.1063/1.4993215
   * E. Caldeweyher, S. Ehlert, A. Hansen, H. Neugebauer, S. Spicher,
     C. Bannwarth and S. Grimme, J. Chem. Phys., 2019, 150, 154122.
     DOI: 10.1063/1.5090222
   * E. Caldeweyher, J.-M. Mewes, S. Ehlert and S. Grimme, Phys. Chem. Chem. Phys.
     2020, 22, 8499-8512. DOI: 10.1039/D0CP00502A
   
   for sTDA-xTB:
   * S. Grimme and C. Bannwarth, J. Chem. Phys., 2016, 145, 054103.
     DOI: 10.1063/1.4959605
   
   in the mass-spec context:
   * V. Asgeirsson, C. Bauer and S. Grimme, Chem. Sci., 2017, 8, 4879.
     DOI: 10.1039/c7sc00601b
   * J. Koopman and S. Grimme, ACS Omega 2019, 4, 12, 15120-15133.
     DOI: 10.1021/acsomega.9b02011
   
   for metadynamics refer to:
   * S. Grimme, J. Chem. Theory Comput., 2019, 155, 2847-2862
     DOI: 10.1021/acs.jctc.9b00143
   
   for SPH calculations refer to:
   * S. Spicher and S. Grimme, J. Chem. Theory Comput., 2021, 17, 1701-1714
     DOI: 10.1021/acs.jctc.0c01306
   
   for ONIOM refer to:
   * C. Plett, A. Katbashev, S. Ehlert, S. Grimme, M. Bursch,
     Phys. Chem. Chem. Phys., 2023, 25, 17860-17868. DOI: 10.1039/D3CP02178E
   
   for DIPRO refer to:
   * J. Kohn, N. Gildemeister, S. Grimme, D. Fazzi, A. Hansen,
     J. Chem. Phys., 2023, just accepted.
   
   for PTB refer to:
   * S. Grimme, M. Mueller, A. Hansen, J. Chem. Phys., 2023, 158, 124111.
     DOI: 10.1063/5.0137838
   
   with help from (in alphabetical order)
   P. Atkinson, C. Bannwarth, F. Bohle, G. Brandenburg, E. Caldeweyher
   M. Checinski, S. Dohm, S. Ehlert, S. Ehrlich, I. Gerasimov, C. Hölzer
   A. Katbashev, J. Kohn, J. Koopman, C. Lavigne, S. Lehtola, F. März, M. Müller,
   F. Musil, H. Neugebauer, J. Pisarek, C. Plett, P. Pracht, F. Pultar,
   J. Seibert, P. Shushkov, S. Spicher, M. Stahn, M. Steiner, T. Strunk,
   J. Stückrath, T. Rose, and J. Unsleber
   
 * started run on 2025/05/05 at 16:59:59.117     
   ID    Z sym.   atoms
    1    7 N      1, 6, 17, 28, 35, 36, 44, 52, 53, 61, 62, 68, 74, 77, 78,
                  86, 92, 103
    2    6 C      2, 3, 5, 7, 8, 10-16, 18, 19, 21-27, 29, 30, 32, 33, 37,
                  38, 40, 41, 45, 46, 48-50, 54, 55, 57-59, 63, 64, 66, 69,
                  70, 72, 73, 75, 76, 79, 80, 82-85, 87, 88, 90, 93, 94,
                  96-102, 104, 105, 107, 108
    3    8 O      4, 9, 20, 31, 34, 39, 42, 43, 47, 51, 56, 60, 65, 67, 71,
                  81, 89, 91, 95, 106, 109, 110
    4    1 H      111-219

           -------------------------------------------------
          |                Calculation Setup                |
           -------------------------------------------------

          program call               : xtb /tmp/tmpqa3nccml/HID/input.xyz --alpb ether --chrg -5 --input /tmp/tmpqa3nccml/HID/constraints.inp --gfn 2
          hostname                   : fedora
          coordinate file            : /tmp/tmpqa3nccml/HID/input.xyz
          omp threads                :                    32


molecular fragmentation (1/2 indicates fragments):
111111111111111122222222222222222222222222222222222222222222222222222222
222222222222222222222222222222222222222222221111111111111111222222222222
222222222222222222222222222222222222222222222222222222222222222222222222
222
# atoms in fragment 1/2:    32   187
 fragment masses (1/2) :      220.27     1334.46
CMA distance (Bohr)    :  14.420
constraining FC (au)   :  0.0500
########################################################################
[WARNING] Please study the warnings concerning your input carefully
-1- readin_getIntValue: could not parse 'S'
########################################################################

           -------------------------------------------------
          |                 G F N 2 - x T B                 |
           -------------------------------------------------

        Reference                      10.1021/acs.jctc.8b01176
      * Hamiltonian:
        H0-scaling (s, p, d)           1.850000    2.230000    2.230000
        zeta-weighting                 0.500000
      * Dispersion:
        s8                             2.700000
        a1                             0.520000
        a2                             5.000000
        s9                             5.000000
      * Repulsion:
        kExp                           1.500000    1.000000
        rExp                           1.000000
      * Coulomb:
        alpha                          2.000000
        third order                    shell-resolved
        anisotropic                    true
        a3                             3.000000
        a5                             4.000000
        cn-shift                       1.200000
        cn-exp                         4.000000
        max-rad                        5.000000

      * Solvation model:               ALPB
        Solvent                        ether
        Parameter file                 internal GFN2-xTB/ALPB
        Dielectric constant                4.3300E+00
        Reference state                gsolv [1 M gas/solution]
        Free energy shift                  4.9534E-03 Eh       3.1083E+00 kcal/mol
        Temperature                        2.9815E+02 K
        Density                            7.1300E-01 kg/L
        Solvent mass                       7.4120E+01 g/mol
        Interaction kernel             P16
        Born radius scaling (c1)           1.5847E+00
        Born radii integrator          GBOBC
        Born offset                        0.0000E+00 a0       0.0000E+00 AA
        H-bond correction              true
        Ion screening                  false
        Surface tension                    1.0000E-05 Eh       1.5569E+01 dyn/cm
        Grid points                               230 per atom

          ...................................................
          :                      SETUP                      :
          :.................................................:
          :  # basis functions                 549          :
          :  # atomic orbitals                 549          :
          :  # shells                          329          :
          :  # electrons                       616          :
          :  max. iterations                   250          :
          :  Hamiltonian                  GFN2-xTB          :
          :  restarted?                      false          :
          :  GBSA solvation                   true          :
          :  PC potential                    false          :
          :  electronic temp.          300.0000000     K    :
          :  accuracy                    1.0000000          :
          :  -> integral cutoff          0.2500000E+02      :
          :  -> integral neglect         0.1000000E-07      :
          :  -> SCF convergence          0.1000000E-05 Eh   :
          :  -> wf. convergence          0.1000000E-03 e    :
          :  Broyden damping             0.4000000          :
          :  net charge                         -5          :
          :  unpaired electrons                  0          :
          ...................................................

 iter      E             dE          RMSdq      gap      omega  full diag
   1   -351.9661187 -0.351966E+03  0.457E+00    0.01       0.0  T
   2   -351.5465403  0.419578E+00  0.336E+00    1.20       1.0  T
   3   -352.6090183 -0.106248E+01  0.238E+00    0.08       1.0  T
   4   -352.6114696 -0.245122E-02  0.194E+00    0.45       1.0  T
   5   -352.7398787 -0.128409E+00  0.167E+00    0.38       1.0  T
   6   -353.0859074 -0.346029E+00  0.115E+00    0.04       1.0  T
   7   -352.9135225  0.172385E+00  0.136E+00    0.30       1.0  T
   8   -352.8873988  0.261237E-01  0.137E+00    0.20       1.0  T
   9   -353.2010981 -0.313699E+00  0.809E-01    0.01       1.0  T
  10   -353.2455690 -0.444709E-01  0.633E-01    0.00       1.0  T
  11   -353.2096605  0.359085E-01  0.650E-01    0.02       1.0  T
  12   -352.1628326  0.104683E+01  0.194E+00    0.01       1.0  T
  13   -353.1746132 -0.101178E+01  0.791E-01    0.06       1.0  T
  14   -353.2995799 -0.124967E+00  0.428E-01    0.01       1.0  T
  15   -353.3258113 -0.262314E-01  0.276E-01    0.00       1.0  T
  16   -353.2888389  0.369723E-01  0.432E-01    0.03       1.0  T
  17   -353.2608992  0.279397E-01  0.526E-01    0.05       1.0  T
  18   -353.3045842 -0.436850E-01  0.366E-01    0.01       1.0  T
  19   -353.3255489 -0.209647E-01  0.253E-01    0.02       1.0  T
  20   -353.3295273 -0.397836E-02  0.222E-01    0.03       1.0  T
  21   -353.3216661  0.786114E-02  0.279E-01    0.01       1.0  T
  22   -353.3192062  0.245996E-02  0.293E-01    0.01       1.0  T
  23   -353.3271140 -0.790782E-02  0.237E-01    0.00       1.0  T
  24   -353.3179292  0.918479E-02  0.301E-01    0.02       1.0  T
  25   -353.3184406 -0.511431E-03  0.298E-01    0.02       1.0  T
  26   -353.3379759 -0.195353E-01  0.123E-01    0.01       1.0  T
  27   -353.1240093  0.213967E+00  0.800E-01    0.01       1.0  T
  28   -353.3390589 -0.215050E+00  0.103E-01    0.00       1.0  T
  29   -353.3409906 -0.193172E-02  0.628E-02    0.00       1.0  T
  30   -353.3411934 -0.202780E-03  0.571E-02    0.00       1.0  T
  31   -353.3413744 -0.180962E-03  0.496E-02    0.01       1.0  T
  32   -353.3414805 -0.106160E-03  0.448E-02    0.00       1.0  T
  33   -353.3415875 -0.106928E-03  0.400E-02    0.00       1.0  T
  34   -353.3416993 -0.111831E-03  0.347E-02    0.01       1.0  T
  35   -353.3418860 -0.186729E-03  0.236E-02    0.01       1.0  T
  36   -353.3420403 -0.154280E-03  0.714E-03    0.00       1.0  T
  37   -353.3420528 -0.125047E-04  0.340E-03    0.00       2.0  T
  38   -353.3420561 -0.332548E-05  0.104E-03    0.00       6.5  T
  39   -353.3420563 -0.211972E-06  0.654E-04    0.00      10.3  T
  40   -353.3420564 -0.815481E-07  0.389E-04    0.00      17.4  T

   *** convergence criteria satisfied after 40 iterations ***

         #    Occupation            Energy/Eh            Energy/eV
      -------------------------------------------------------------
         1        2.0000           -0.6407783             -17.4365
       ...           ...                  ...                  ...
       302        2.0000           -0.2605162              -7.0890
       303        2.0000           -0.2566302              -6.9833
       304        2.0000           -0.2537985              -6.9062
       305        2.0000           -0.2091864              -5.6923
       306        2.0000           -0.2017967              -5.4912
       307        1.9541           -0.1583920              -4.3101
       308        0.5597           -0.1539297              -4.1886 (HOMO)
       309        0.4857           -0.1537473              -4.1837 (LUMO)
       310        0.4127           -0.1535477              -4.1782
       311        0.2287           -0.1528830              -4.1602
       312        0.1629           -0.1525255              -4.1504
       313        0.1479           -0.1524264              -4.1477
       ...           ...                  ...                  ...
       549                          0.9339464              25.4140
      -------------------------------------------------------------
                  HL-Gap            0.0001824 Eh            0.0050 eV
             Fermi-level           -0.1548276 Eh           -4.2131 eV

 SCC (total)                   0 d,  0 h,  0 min,  1.959 sec
 SCC setup                      ...        0 min,  0.003 sec (  0.162%)
 Dispersion                     ...        0 min,  0.008 sec (  0.406%)
 classical contributions        ...        0 min,  0.000 sec (  0.023%)
 integral evaluation            ...        0 min,  0.024 sec (  1.202%)
 iterations                     ...        0 min,  1.871 sec ( 95.523%)
 molecular gradient             ...        0 min,  0.050 sec (  2.552%)
 printout                       ...        0 min,  0.003 sec (  0.132%)

         :::::::::::::::::::::::::::::::::::::::::::::::::::::
         ::                     SUMMARY                     ::
         :::::::::::::::::::::::::::::::::::::::::::::::::::::
         :: total energy            -348.278618627212 Eh    ::
         :: total w/o Gsasa/hb      -348.199053195863 Eh    ::
         :: gradient norm              0.784146386297 Eh/a0 ::
         :: HOMO-LUMO gap              0.004963223033 eV    ::
         ::.................................................::
         :: SCC energy              -353.315720074921 Eh    ::
         :: -> isotropic ES            2.090896782176 Eh    ::
         :: -> anisotropic ES          0.032591497195 Eh    ::
         :: -> anisotropic XC          0.121115857453 Eh    ::
         :: -> dispersion             -0.303559758297 Eh    ::
         :: -> Gsolv                  -0.878654140956 Eh    ::
         ::    -> Gelec               -0.799088709607 Eh    ::
         ::    -> Gsasa               -0.071915607528 Eh    ::
         ::    -> Ghb                 -0.012603261398 Eh    ::
         ::    -> Gshift               0.004953437577 Eh    ::
         :: repulsion energy           5.037101447709 Eh    ::
         :: add. restraining           0.000000000000 Eh    ::
         :: total charge              -5.000000000235 e     ::
         :::::::::::::::::::::::::::::::::::::::::::::::::::::

           -------------------------------------------------
          |                Property Printout                |
           -------------------------------------------------

    * Orbital Energies and Occupations

         #    Occupation            Energy/Eh            Energy/eV
      -------------------------------------------------------------
         1        2.0000           -0.6407783             -17.4365
       ...           ...                  ...                  ...
       296        2.0000           -0.2956218              -8.0443
       297        2.0000           -0.2912668              -7.9258
       298        2.0000           -0.2851834              -7.7602
       299        2.0000           -0.2828437              -7.6966
       300        2.0000           -0.2795451              -7.6068
       301        2.0000           -0.2722357              -7.4079
       302        2.0000           -0.2605162              -7.0890
       303        2.0000           -0.2566302              -6.9833
       304        2.0000           -0.2537985              -6.9062
       305        2.0000           -0.2091864              -5.6923
       306        2.0000           -0.2017967              -5.4912
       307        1.9541           -0.1583920              -4.3101
       308        0.5597           -0.1539297              -4.1886 (HOMO)
       309        0.4857           -0.1537473              -4.1837 (LUMO)
       310        0.4127           -0.1535477              -4.1782
       311        0.2287           -0.1528830              -4.1602
       312        0.1629           -0.1525255              -4.1504
       313        0.1479           -0.1524264              -4.1477
       314        0.0218           -0.1505447              -4.0965
       315        0.0133           -0.1500700              -4.0836
       316        0.0064           -0.1493782              -4.0648
       317        0.0042           -0.1489818              -4.0540
       318        0.0021           -0.1483074              -4.0357
       319        0.0004           -0.1466399              -3.9903
       ...           ...                  ...                  ...
       549                          0.9339464              25.4140
      -------------------------------------------------------------
                  HL-Gap            0.0001824 Eh            0.0050 eV
             Fermi-level           -0.1548276 Eh           -4.2131 eV

     #   Z          covCN         q      C6AA      α(0)
     1   7 N        2.630    -0.374    29.668     8.090
     2   6 C        3.785     0.031    20.077     6.382
     3   6 C        2.751     0.270    22.438     7.756
     4   8 O        0.860    -0.506    23.909     6.556
     5   6 C        3.760    -0.095    22.370     6.742
     6   7 N        2.688    -0.186    25.033     7.431
     7   6 C        3.794     0.031    20.068     6.379
     8   6 C        2.765     0.130    25.145     8.212
     9   8 O        0.856    -0.516    24.137     6.587
    10   6 C        3.817    -0.069    21.812     6.647
    11   6 C        2.972     0.002    27.973     8.675
    12   6 C        2.935    -0.051    29.272     8.873
    13   6 C        2.936    -0.039    28.979     8.829
    14   6 C        2.926    -0.043    29.077     8.843
    15   6 C        2.925    -0.023    28.589     8.768
    16   6 C        2.928    -0.037    28.915     8.818
    17   7 N        2.642    -0.366    29.444     8.059
    18   6 C        3.792     0.058    19.621     6.308
    19   6 C        2.780     0.122    25.304     8.239
    20   8 O        0.856    -0.524    24.328     6.613
    21   6 C        3.823    -0.062    21.671     6.625
    22   6 C        2.972    -0.001    28.043     8.686
    23   6 C        2.925    -0.045    29.122     8.850
    24   6 C        2.928    -0.052    29.286     8.875
    25   6 C        2.918    -0.030    28.749     8.793
    26   6 C        2.921    -0.046    29.135     8.852
    27   6 C        2.921    -0.039    28.970     8.827
    28   7 N        2.642    -0.356    29.165     8.021
    29   6 C        3.784     0.036    19.984     6.368
    30   6 C        2.767     0.157    24.583     8.120
    31   8 O        0.856    -0.479    23.327     6.475
    32   6 C        3.815    -0.089    22.189     6.704
    33   6 C        2.742     0.295    21.994     7.679
    34   8 O        0.859    -0.499    23.759     6.535
    35   7 N        2.639    -0.298    27.678     7.814
    36   7 N        2.631    -0.358    29.220     8.028
    37   6 C        3.787     0.039    19.926     6.358
    38   6 C        2.756     0.271    22.430     7.755
    39   8 O        0.859    -0.526    24.366     6.618
    40   6 C        3.805    -0.102    22.436     6.743
    41   6 C        2.686     0.362    20.865     7.475
    42   8 O        0.856    -0.644    27.227     6.996
    43   8 O        0.857    -0.630    26.875     6.950
    44   7 N        2.690    -0.194    25.215     7.458
    45   6 C        3.799     0.030    20.072     6.379
    46   6 C        2.757     0.270    22.431     7.756
    47   8 O        0.859    -0.476    23.251     6.465
    48   6 C        3.809    -0.068    21.793     6.645
    49   6 C        3.808    -0.101    22.412     6.739
    50   6 C        2.742     0.255    22.700     7.801
    51   8 O        0.858    -0.552    24.975     6.700
    52   7 N        2.638    -0.304    27.828     7.835
    53   7 N        2.687    -0.173    24.741     7.387
    54   6 C        3.792     0.026    20.139     6.391
    55   6 C        2.751     0.258    22.651     7.793
    56   8 O        0.858    -0.529    24.435     6.627
    57   6 C        3.807    -0.056    21.583     6.613
    58   6 C        3.808    -0.096    22.328     6.726
    59   6 C        2.742     0.278    22.297     7.731
    60   8 O        0.859    -0.496    23.694     6.526
    61   7 N        2.639    -0.289    27.466     7.783
    62   7 N        2.684    -0.195    25.243     7.462
    63   6 C        3.795     0.021    20.227     6.404
    64   6 C        2.755     0.273    22.382     7.747
    65   8 O        0.860    -0.514    24.087     6.580
    66   6 C        3.681     0.076    19.522     6.328
    67   8 O        1.655    -0.479    22.435     6.394
    68   7 N        2.688    -0.188    25.077     7.437
    69   6 C        3.797     0.039    19.918     6.355
    70   6 C        2.750     0.268    22.479     7.764
    71   8 O        0.857    -0.519    24.220     6.598
    72   6 C        3.809    -0.052    21.495     6.600
    73   6 C        3.084    -0.035    28.769     8.793
    74   7 N        2.853    -0.162    24.500     7.352
    75   6 C        3.060     0.005    27.849     8.654
    76   6 C        2.105    -0.197    36.569     9.771
    77   7 N        1.984    -0.435    32.324     8.432
    78   7 N        2.689    -0.170    24.672     7.377
    79   6 C        3.796     0.028    20.104     6.385
    80   6 C        2.757     0.273    22.382     7.747
    81   8 O        0.860    -0.490    23.560     6.508
    82   6 C        3.809    -0.075    21.926     6.665
    83   6 C        3.852    -0.006    20.649     6.463
    84   6 C        3.762    -0.113    22.714     6.794
    85   6 C        3.762    -0.104    22.540     6.768
    86   7 N        2.692    -0.185    25.007     7.427
    87   6 C        3.798     0.015    20.332     6.420
    88   6 C        2.758     0.263    22.563     7.779
    89   8 O        0.858    -0.502    23.828     6.545
    90   6 C        3.690     0.078    19.456     6.313
    91   8 O        1.656    -0.457    21.991     6.330
    92   7 N        2.691    -0.177    24.825     7.400
    93   6 C        3.805     0.036    19.964     6.361
    94   6 C        2.754     0.272    22.394     7.749
    95   8 O        0.858    -0.506    23.919     6.557
    96   6 C        3.820    -0.064    21.712     6.631
    97   6 C        2.973     0.009    27.806     8.650
    98   6 C        2.933    -0.035    28.863     8.811
    99   6 C        2.932    -0.047    29.164     8.857
   100   6 C        2.924    -0.036    28.886     8.814
   101   6 C        2.924    -0.048    29.181     8.859
   102   6 C        2.929    -0.047    29.177     8.858
   103   7 N        2.686    -0.175    24.799     7.396
   104   6 C        3.791     0.042    19.872     6.348
   105   6 C        2.765     0.118    25.383     8.251
   106   8 O        0.856    -0.455    22.821     6.405
   107   6 C        3.805    -0.086    22.134     6.698
   108   6 C        2.684     0.362    20.851     7.473
   109   8 O        0.856    -0.635    26.995     6.966
   110   8 O        0.856    -0.634    26.981     6.964
   111   1 H        0.980     0.075     2.030     2.226
   112   1 H        0.980     0.017     2.772     2.602
   113   1 H        0.980     0.015     2.805     2.617
   114   1 H        0.980     0.014     2.818     2.623
   115   1 H        0.980     0.012     2.853     2.640
   116   1 H        0.980     0.010     2.881     2.652
   117   1 H        0.860     0.167     1.289     1.779
   118   1 H        0.860     0.148     1.414     1.863
   119   1 H        0.927     0.054     2.274     2.358
   120   1 H        0.927     0.030     2.590     2.517
   121   1 H        0.927     0.049     2.327     2.385
   122   1 H        0.927     0.034     2.531     2.488
   123   1 H        0.861     0.201     1.103     1.645
   124   1 H        0.927     0.063     2.162     2.299
   125   1 H        0.929    -0.017     3.378     2.874
   126   1 H        0.926     0.068     2.104     2.268
   127   1 H        0.926     0.046     2.372     2.408
   128   1 H        0.929     0.031     2.575     2.509
   129   1 H        0.929     0.033     2.537     2.491
   130   1 H        0.929     0.031     2.575     2.509
   131   1 H        0.929     0.030     2.592     2.518
   132   1 H        0.929     0.018     2.758     2.597
   133   1 H        0.860     0.145     1.438     1.879
   134   1 H        0.860     0.146     1.431     1.874
   135   1 H        0.927    -0.023     3.493     2.923
   136   1 H        0.929    -0.043     3.914     3.093
   137   1 H        0.926     0.048     2.342     2.393
   138   1 H        0.927     0.034     2.530     2.487
   139   1 H        0.929     0.025     2.660     2.550
   140   1 H        0.929     0.031     2.567     2.505
   141   1 H        0.929     0.028     2.614     2.528
   142   1 H        0.929     0.029     2.595     2.519
   143   1 H        0.929     0.022     2.699     2.569
   144   1 H        0.860     0.147     1.425     1.870
   145   1 H        0.860     0.145     1.433     1.875
   146   1 H        0.926     0.025     2.664     2.552
   147   1 H        0.929    -0.015     3.335     2.856
   148   1 H        0.927     0.079     1.988     2.205
   149   1 H        0.927     0.062     2.174     2.305
   150   1 H        0.861     0.227     0.977     1.548
   151   1 H        0.861     0.208     1.065     1.617
   152   1 H        0.860     0.155     1.368     1.833
   153   1 H        0.860     0.147     1.424     1.869
   154   1 H        0.927     0.039     2.460     2.453
   155   1 H        0.927     0.033     2.544     2.494
   156   1 H        0.927     0.029     2.596     2.519
   157   1 H        0.861     0.198     1.118     1.656
   158   1 H        0.927     0.075     2.034     2.230
   159   1 H        0.927     0.078     2.002     2.213
   160   1 H        0.927     0.050     2.323     2.383
   161   1 H        0.927     0.067     2.114     2.274
   162   1 H        0.926     0.070     2.083     2.257
   163   1 H        0.861     0.206     1.075     1.624
   164   1 H        0.861     0.210     1.056     1.609
   165   1 H        0.861     0.201     1.102     1.645
   166   1 H        0.927     0.093     1.852     2.128
   167   1 H        0.927     0.062     2.176     2.307
   168   1 H        0.927     0.065     2.137     2.286
   169   1 H        0.927     0.063     2.166     2.301
   170   1 H        0.927     0.062     2.175     2.306
   171   1 H        0.861     0.222     1.002     1.568
   172   1 H        0.861     0.229     0.969     1.542
   173   1 H        0.861     0.205     1.081     1.629
   174   1 H        0.927     0.071     2.076     2.253
   175   1 H        0.927     0.061     2.192     2.315
   176   1 H        0.927     0.064     2.147     2.292
   177   1 H        0.804     0.322     0.659     1.275
   178   1 H        0.861     0.196     1.128     1.664
   179   1 H        0.927     0.056     2.246     2.344
   180   1 H        0.927     0.022     2.709     2.574
   181   1 H        0.927     0.025     2.656     2.549
   182   1 H        0.929    -0.073     4.693     3.387
   183   1 H        0.861     0.199     1.113     1.652
   184   1 H        0.927     0.075     2.034     2.230
   185   1 H        0.927     0.059     2.211     2.325
   186   1 H        0.927     0.050     2.317     2.380
   187   1 H        0.927     0.029     2.596     2.519
   188   1 H        0.927     0.044     2.401     2.423
   189   1 H        0.927     0.034     2.524     2.484
   190   1 H        0.927     0.054     2.265     2.353
   191   1 H        0.926     0.037     2.488     2.467
   192   1 H        0.927     0.048     2.343     2.393
   193   1 H        0.927     0.026     2.648     2.545
   194   1 H        0.861     0.216     1.029     1.589
   195   1 H        0.927     0.084     1.937     2.176
   196   1 H        0.927     0.033     2.544     2.494
   197   1 H        0.927     0.071     2.074     2.252
   198   1 H        0.804     0.325     0.649     1.266
   199   1 H        0.861     0.219     1.015     1.578
   200   1 H        0.927     0.071     2.069     2.249
   201   1 H        0.927     0.045     2.385     2.415
   202   1 H        0.927     0.062     2.179     2.308
   203   1 H        0.929     0.029     2.600     2.521
   204   1 H        0.929     0.036     2.496     2.471
   205   1 H        0.929     0.038     2.469     2.457
   206   1 H        0.929     0.042     2.427     2.436
   207   1 H        0.929     0.040     2.451     2.448
   208   1 H        0.861     0.195     1.130     1.665
   209   1 H        0.927     0.062     2.175     2.306
   210   1 H        0.929     0.067     2.117     2.275
   211   1 H        0.927     0.034     2.536     2.490
   212   1 H        0.927     0.038     2.470     2.458
   213   1 H        0.980     0.016     2.792     2.611
   214   1 H        0.980    -0.018     3.381     2.873
   215   1 H        0.980    -0.013     3.280     2.830
   216   1 H        0.980    -0.017     3.362     2.865
   217   1 H        0.980    -0.014     3.304     2.840
   218   1 H        0.980    -0.011     3.243     2.814
   219   1 H        0.858     0.087     1.926     2.174

 Mol. C6AA /au·bohr⁶  :     490776.934718
 Mol. C8AA /au·bohr⁸  :   10933346.058597
 Mol. α(0) /au        :       1061.981650


Wiberg/Mayer (AO) data.
largest (>0.10) Wiberg bond orders for each atom

 ---------------------------------------------------------------------------
     #   Z sym  total        # sym  WBO       # sym  WBO       # sym  WBO
 ---------------------------------------------------------------------------
     1   7 N    2.992 --     2 C    1.017   117 H    0.956   118 H    0.955
     2   6 C    3.984 --     1 N    1.017     5 C    0.987   119 H    0.958
                             3 C    0.939
     3   6 C    3.944 --     4 O    1.641     6 N    1.295     2 C    0.939
     4   8 O    1.952 --     3 C    1.641     6 N    0.196
     5   6 C    3.995 --     2 C    0.987   120 H    0.986   121 H    0.982
                           122 H    0.982
     6   7 N    3.456 --     3 C    1.295     7 C    0.968   123 H    0.922
                             4 O    0.196
     7   6 C    3.951 --     8 C    0.968     6 N    0.968    10 C    0.959
                           124 H    0.940
     8   6 C    3.540 --     9 O    1.573     7 C    0.968   125 H    0.953
     9   8 O    1.691 --     8 C    1.573
    10   6 C    3.983 --    11 C    1.013   127 H    0.975   126 H    0.964
                             7 C    0.959
    11   6 C    3.976 --    13 C    1.421    12 C    1.395    10 C    1.013
                            16 C    0.103
    12   6 C    3.989 --    14 C    1.461    11 C    1.395   128 H    0.972
                            15 C    0.109
    13   6 C    3.985 --    15 C    1.430    11 C    1.421   129 H    0.973
                            14 C    0.111
    14   6 C    3.989 --    12 C    1.461    16 C    1.417   130 H    0.970
                            13 C    0.111
    15   6 C    3.992 --    16 C    1.453    13 C    1.430   131 H    0.974
                            12 C    0.109
    16   6 C    3.980 --    15 C    1.453    14 C    1.417   132 H    0.972
                            11 C    0.103
    17   7 N    2.976 --    18 C    0.995   133 H    0.965   134 H    0.963
    18   6 C    3.982 --    17 N    0.995    19 C    0.986   135 H    0.965
                            21 C    0.959
    19   6 C    3.546 --    20 O    1.557    18 C    0.986   136 H    0.954
    20   8 O    1.660 --    19 C    1.557
    21   6 C    3.984 --    22 C    1.017   137 H    0.973   138 H    0.968
                            18 C    0.959
    22   6 C    3.971 --    24 C    1.424    23 C    1.379    21 C    1.017
                            27 C    0.103
    23   6 C    3.967 --    25 C    1.450    22 C    1.379   139 H    0.971
                            26 C    0.102
    24   6 C    3.993 --    26 C    1.432    22 C    1.424   140 H    0.972
                            25 C    0.109
    25   6 C    3.992 --    23 C    1.450    27 C    1.433   141 H    0.971
                            24 C    0.109
    26   6 C    3.969 --    24 C    1.432    27 C    1.428   142 H    0.975
                            23 C    0.102
    27   6 C    3.974 --    25 C    1.433    26 C    1.428   143 H    0.973
                            22 C    0.103
    28   7 N    2.990 --    29 C    1.009   144 H    0.963   145 H    0.959
    29   6 C    3.983 --    28 N    1.009    32 C    0.987    30 C    0.961
                           146 H    0.927
    30   6 C    3.611 --    31 O    1.656    29 C    0.961   147 H    0.951
    31   8 O    1.773 --    30 C    1.656
    32   6 C    3.992 --    29 C    0.987   148 H    0.971    33 C    0.969
                           149 H    0.950
    33   6 C    3.939 --    34 O    1.650    35 N    1.288    32 C    0.969
    34   8 O    1.940 --    33 C    1.650    35 N    0.186
    35   7 N    3.379 --    33 C    1.288   151 H    0.901   150 H    0.851
                            34 O    0.186
    36   7 N    3.000 --    37 C    1.019   152 H    0.962   153 H    0.953
    37   6 C    3.988 --    36 N    1.019    40 C    0.973    38 C    0.954
                           154 H    0.951
    38   6 C    3.901 --    39 O    1.568    44 N    1.285    37 C    0.954
    39   8 O    1.896 --    38 C    1.568    44 N    0.170
    40   6 C    3.987 --   155 H    0.974    37 C    0.973   156 H    0.950
                            41 C    0.928
    41   6 C    3.940 --    43 O    1.509    42 O    1.479    40 C    0.928
    42   8 O    1.803 --    41 C    1.479    43 O    0.217
    43   8 O    1.800 --    41 C    1.509    42 O    0.217
    44   7 N    3.439 --    38 C    1.285    45 C    0.974   157 H    0.900
                            39 O    0.170
    45   6 C    3.962 --    48 C    0.978    44 N    0.974   158 H    0.951
                            46 C    0.937
    46   6 C    3.946 --    47 O    1.644    53 N    1.289    45 C    0.937
    47   8 O    1.966 --    46 C    1.644    53 N    0.198
    48   6 C    3.984 --    49 C    0.996    45 C    0.978   159 H    0.972
                           160 H    0.967
    49   6 C    3.993 --    48 C    0.996   161 H    0.976    50 C    0.966
                           162 H    0.958
    50   6 C    3.790 --    51 O    1.550    52 N    1.230    49 C    0.966
    51   8 O    1.811 --    50 C    1.550    52 N    0.163
    52   7 N    3.308 --    50 C    1.230   164 H    0.934   163 H    0.930
                            51 O    0.163
    53   7 N    3.467 --    46 C    1.289    54 C    0.980   165 H    0.913
                            47 O    0.198
    54   6 C    3.960 --    57 C    0.981    53 N    0.980   166 H    0.938
                            55 C    0.938
    55   6 C    3.871 --    56 O    1.565    62 N    1.286    54 C    0.938
    56   8 O    1.874 --    55 C    1.565    62 N    0.174
    57   6 C    3.988 --    58 C    0.990    54 C    0.981   167 H    0.975
                           168 H    0.973
    58   6 C    3.995 --    57 C    0.990   169 H    0.973    59 C    0.968
                           170 H    0.966
    59   6 C    3.931 --    60 O    1.652    61 N    1.288    58 C    0.968
    60   8 O    1.946 --    59 C    1.652    61 N    0.196
    61   7 N    3.376 --    59 C    1.288   171 H    0.932   172 H    0.927
                            60 O    0.196
    62   7 N    3.429 --    55 C    1.286    63 C    0.970   173 H    0.907
                            56 O    0.174
    63   6 C    3.964 --    62 N    0.970    66 C    0.965   174 H    0.953
                            64 C    0.944
    64   6 C    3.887 --    65 O    1.571    68 N    1.291    63 C    0.944
    65   8 O    1.902 --    64 C    1.571    68 N    0.181
    66   6 C    3.952 --    67 O    1.007   176 H    0.970    63 C    0.965
                           175 H    0.958
    67   8 O    1.942 --    66 C    1.007   177 H    0.803
    68   7 N    3.448 --    64 C    1.291    69 C    0.971   178 H    0.903
                            65 O    0.181
    69   6 C    3.960 --    68 N    0.971    72 C    0.962   179 H    0.954
                            70 C    0.937
    70   6 C    3.931 --    71 O    1.595    78 N    1.313    69 C    0.937
    71   8 O    1.910 --    70 C    1.595    78 N    0.188
    72   6 C    3.980 --    73 C    0.995   181 H    0.974   180 H    0.964
                            69 C    0.962
    73   6 C    3.916 --    75 C    1.564    74 N    1.124    72 C    0.995
                            76 C    0.119
    74   7 N    3.480 --    76 C    1.244    73 C    1.124   219 H    0.906
    75   6 C    3.966 --    73 C    1.564    77 N    1.275   182 H    0.967
    76   6 C    2.908 --    77 N    1.471    74 N    1.244    73 C    0.119
    77   7 N    2.934 --    76 C    1.471    75 C    1.275
    78   7 N    3.473 --    70 C    1.313    79 C    0.967   183 H    0.923
                            71 O    0.188
    79   6 C    3.956 --    82 C    0.977    78 N    0.967   184 H    0.953
                            80 C    0.934
    80   6 C    3.941 --    81 O    1.626    86 N    1.300    79 C    0.934
    81   8 O    1.946 --    80 C    1.626    86 N    0.194
    82   6 C    3.988 --    83 C    0.989    79 C    0.977   186 H    0.975
                           185 H    0.975
    83   6 C    3.993 --    85 C    1.012    84 C    1.006    82 C    0.989
                           187 H    0.966
    84   6 C    3.995 --    83 C    1.006   189 H    0.987   188 H    0.987
                           190 H    0.985
    85   6 C    3.997 --    83 C    1.012   191 H    0.987   192 H    0.985
                           193 H    0.983
    86   7 N    3.462 --    80 C    1.300    87 C    0.978   194 H    0.908
                            81 O    0.194
    87   6 C    3.963 --    86 N    0.978    90 C    0.976   195 H    0.952
                            88 C    0.924
    88   6 C    3.934 --    89 O    1.601    92 N    1.326    87 C    0.924
    89   8 O    1.921 --    88 C    1.601    92 N    0.200
    90   6 C    3.960 --    91 O    1.009    87 C    0.976   196 H    0.968
                           197 H    0.968
    91   8 O    1.943 --    90 C    1.009   198 H    0.874
    92   7 N    3.483 --    88 C    1.326    93 C    0.974   199 H    0.894
                            89 O    0.200
    93   6 C    3.964 --    92 N    0.974    96 C    0.972   200 H    0.957
                            94 C    0.930
    94   6 C    3.943 --    95 O    1.608   103 N    1.328    93 C    0.930
    95   8 O    1.924 --    94 C    1.608   103 N    0.203
    96   6 C    3.991 --    97 C    1.006    93 C    0.972   201 H    0.970
                           202 H    0.964
    97   6 C    3.979 --    99 C    1.417    98 C    1.409    96 C    1.006
                           102 C    0.106
    98   6 C    3.978 --   100 C    1.437    97 C    1.409   203 H    0.972
                           101 C    0.109
    99   6 C    3.987 --   101 C    1.440    97 C    1.417   204 H    0.972
                           100 C    0.108
   100   6 C    3.988 --   102 C    1.445    98 C    1.437   205 H    0.973
                            99 C    0.108
   101   6 C    3.977 --    99 C    1.440   102 C    1.428   206 H    0.974
                            98 C    0.109
   102   6 C    3.985 --   100 C    1.445   101 C    1.428   207 H    0.974
                            97 C    0.106
   103   7 N    3.485 --    94 C    1.328   104 C    0.959   208 H    0.921
                            95 O    0.203
   104   6 C    3.953 --   107 C    0.973   105 C    0.966   103 N    0.959
                           209 H    0.951
   105   6 C    3.702 --   106 O    1.729   104 C    0.966   210 H    0.862
   106   8 O    1.852 --   105 C    1.729
   107   6 C    3.973 --   104 C    0.973   212 H    0.970   211 H    0.966
                           108 C    0.914
   108   6 C    3.939 --   110 O    1.505   109 O    1.498   107 C    0.914
   109   8 O    1.796 --   108 C    1.498   110 O    0.220
   110   8 O    1.797 --   108 C    1.505   109 O    0.220
   111   1 H    0.994 --   213 H    0.884
   112   1 H    1.000 --   214 H    0.992
   113   1 H    1.000 --   215 H    0.964
   114   1 H    1.000 --   216 H    0.989
   115   1 H    1.000 --   217 H    0.991
   116   1 H    1.000 --   218 H    0.977
   117   1 H    0.972 --     1 N    0.956
   118   1 H    0.978 --     1 N    0.955
   119   1 H    0.997 --     2 C    0.958
   120   1 H    0.999 --     5 C    0.986
   121   1 H    0.997 --     5 C    0.982
   122   1 H    0.999 --     5 C    0.982
   123   1 H    0.959 --     6 N    0.922
   124   1 H    0.980 --     7 C    0.940
   125   1 H    0.999 --     8 C    0.953
   126   1 H    0.994 --    10 C    0.964
   127   1 H    0.998 --    10 C    0.975
   128   1 H    0.999 --    12 C    0.972
   129   1 H    0.999 --    13 C    0.973
   130   1 H    0.999 --    14 C    0.970
   131   1 H    0.999 --    15 C    0.974
   132   1 H    0.999 --    16 C    0.972
   133   1 H    0.978 --    17 N    0.965
   134   1 H    0.976 --    17 N    0.963
   135   1 H    0.999 --    18 C    0.965
   136   1 H    0.998 --    19 C    0.954
   137   1 H    0.997 --    21 C    0.973
   138   1 H    0.998 --    21 C    0.968
   139   1 H    0.999 --    23 C    0.971
   140   1 H    0.999 --    24 C    0.972
   141   1 H    0.999 --    25 C    0.971
   142   1 H    0.999 --    26 C    0.975
   143   1 H    0.999 --    27 C    0.973
   144   1 H    0.978 --    28 N    0.963
   145   1 H    0.977 --    28 N    0.959
   146   1 H    0.990 --    29 C    0.927
   147   1 H    1.000 --    30 C    0.951
   148   1 H    0.994 --    32 C    0.971
   149   1 H    0.996 --    32 C    0.950
   150   1 H    0.948 --    35 N    0.851
   151   1 H    0.957 --    35 N    0.901
   152   1 H    0.975 --    36 N    0.962
   153   1 H    0.978 --    36 N    0.953
   154   1 H    0.996 --    37 C    0.951
   155   1 H    0.999 --    40 C    0.974
   156   1 H    0.999 --    40 C    0.950
   157   1 H    0.961 --    44 N    0.900
   158   1 H    0.994 --    45 C    0.951
   159   1 H    0.993 --    48 C    0.972
   160   1 H    0.997 --    48 C    0.967
   161   1 H    0.995 --    49 C    0.976
   162   1 H    0.989 --    49 C    0.958
   163   1 H    0.957 --    52 N    0.930
   164   1 H    0.956 --    52 N    0.934
   165   1 H    0.960 --    53 N    0.913
   166   1 H    0.988 --    54 C    0.938
   167   1 H    0.996 --    57 C    0.975
   168   1 H    0.996 --    57 C    0.973
   169   1 H    0.996 --    58 C    0.973
   170   1 H    0.996 --    58 C    0.966
   171   1 H    0.951 --    61 N    0.932
   172   1 H    0.948 --    61 N    0.927
   173   1 H    0.958 --    62 N    0.907
   174   1 H    0.994 --    63 C    0.953
   175   1 H    0.995 --    66 C    0.958
   176   1 H    0.995 --    66 C    0.970
   177   1 H    0.896 --    67 O    0.803
   178   1 H    0.962 --    68 N    0.903
   179   1 H    0.996 --    69 C    0.954
   180   1 H    0.999 --    72 C    0.964
   181   1 H    0.999 --    72 C    0.974
   182   1 H    0.994 --    75 C    0.967
   183   1 H    0.960 --    78 N    0.923
   184   1 H    0.994 --    79 C    0.953
   185   1 H    0.996 --    82 C    0.975
   186   1 H    0.997 --    82 C    0.975
   187   1 H    0.999 --    83 C    0.966
   188   1 H    0.998 --    84 C    0.987
   189   1 H    0.999 --    84 C    0.987
   190   1 H    0.996 --    84 C    0.985
   191   1 H    0.999 --    85 C    0.987
   192   1 H    0.998 --    85 C    0.985
   193   1 H    0.999 --    85 C    0.983
   194   1 H    0.953 --    86 N    0.908
   195   1 H    0.992 --    87 C    0.952
   196   1 H    0.999 --    90 C    0.968
   197   1 H    0.995 --    90 C    0.968
   198   1 H    0.894 --    91 O    0.874
   199   1 H    0.952 --    92 N    0.894
   200   1 H    0.994 --    93 C    0.957
   201   1 H    0.998 --    96 C    0.970
   202   1 H    0.996 --    96 C    0.964
   203   1 H    0.999 --    98 C    0.972
   204   1 H    0.999 --    99 C    0.972
   205   1 H    0.998 --   100 C    0.973
   206   1 H    0.998 --   101 C    0.974
   207   1 H    0.998 --   102 C    0.974
   208   1 H    0.962 --   103 N    0.921
   209   1 H    0.995 --   104 C    0.951
   210   1 H    0.995 --   105 C    0.862
   211   1 H    0.998 --   107 C    0.966
   212   1 H    0.998 --   107 C    0.970
   213   1 H    0.999 --   111 H    0.884
   214   1 H    1.000 --   112 H    0.992
   215   1 H    1.000 --   113 H    0.964
   216   1 H    1.000 --   114 H    0.989
   217   1 H    1.000 --   115 H    0.991
   218   1 H    1.000 --   116 H    0.977
   219   1 H    0.992 --    74 N    0.906
 ---------------------------------------------------------------------------

Topologies differ in total number of bonds
Writing topology from bond orders to xtbtopo.mol

molecular dipole:
                 x           y           z       tot (Debye)
 q only:       78.461     179.368    -134.140
   full:       78.876     180.201    -136.271     608.236
molecular quadrupole (traceless):
                xx          xy          yy          xz          yz          zz
 q only:     3812.877   -4364.504   -3692.742    3053.197    7198.291    -120.136
  q+dip:     3858.387   -4428.821   -3688.656    3101.382    7324.406    -169.731
   full:     3855.290   -4429.245   -3687.238    3102.276    7326.178    -168.052


           -------------------------------------------------
          | TOTAL ENERGY             -348.278618627212 Eh   |
          | GRADIENT NORM               0.784146386297 Eh/α |
          | HOMO-LUMO GAP               0.004963223033 eV   |
           -------------------------------------------------
########################################################################
[WARNING] Runtime exception occurred
-3- restart_readRestart: Dimension missmatch in restart file.
-2- restart_readRestart: Multiplicity missmatch in restart file.
-1- restart_readRestart: Number of electron missmatch in restart file.
########################################################################

------------------------------------------------------------------------
 * finished run on 2025/05/05 at 17:00:01.100     
------------------------------------------------------------------------
 total:
 * wall-time:     0 d,  0 h,  0 min,  1.983 sec
 *  cpu-time:     0 d,  0 h,  0 min, 58.552 sec
 * ratio c/w:    29.525 speedup
 SCF:
 * wall-time:     0 d,  0 h,  0 min,  1.961 sec
 *  cpu-time:     0 d,  0 h,  0 min, 57.989 sec
 * ratio c/w:    29.570 speedup

