      -----------------------------------------------------------      
     |                   =====================                   |     
     |                           x T B                           |     
     |                   =====================                   |     
     |                         S. Grimme                         |     
     |          Mulliken Center for Theoretical Chemistry        |     
     |                    University of Bonn                     |     
      -----------------------------------------------------------      

   * xtb version 6.7.1 (edcfbbe) compiled by 'conda@afd1a870197c' on 2025-04-11

   xtb is free software: you can redistribute it and/or modify it under
   the terms of the GNU Lesser General Public License as published by
   the Free Software Foundation, either version 3 of the License, or
   (at your option) any later version.
   
   xtb is distributed in the hope that it will be useful,
   but WITHOUT ANY WARRANTY; without even the implied warranty of
   MERCHANTABILITY or FITNESS FOR A PARTICULAR PURPOSE.  See the
   GNU Lesser General Public License for more details.
   
   Cite this work as:
   * C. Bannwarth, E. Caldeweyher, S. Ehlert, A. Hansen, P. Pracht,
     J. Seibert, S. Spicher, S. Grimme, WIREs Comput. Mol. Sci., 2020, 11,
     e01493. DOI: 10.1002/wcms.1493
   
   for GFN2-xTB:
   * C. Bannwarth, S. Ehlert and S. Grimme., J. Chem. Theory Comput., 2019,
     15, 1652-1671. DOI: 10.1021/acs.jctc.8b01176
   for GFN1-xTB:
   * S. Grimme, C. Bannwarth, P. Shushkov, J. Chem. Theory Comput., 2017,
     13, 1989-2009. DOI: 10.1021/acs.jctc.7b00118
   for GFN0-xTB:
   * P. Pracht, E. Caldeweyher, S. Ehlert, S. Grimme, ChemRxiv, 2019, preprint.
     DOI: 10.26434/chemrxiv.8326202.v1
   for GFN-FF:
   * S. Spicher and S. Grimme, Angew. Chem. Int. Ed., 2020, 59, 15665-15673.
     DOI: 10.1002/anie.202004239
   
   for ALPB and GBSA implicit solvation:
   * S. Ehlert, M. Stahn, S. Spicher, S. Grimme, J. Chem. Theory Comput.,
     2021, 17, 4250-4261. DOI: 10.1021/acs.jctc.1c00471
   
   for ddCOSMO and CPCM-X implicit solvation:
   * M. Stahn, S. Ehlert, S. Grimme, J. Phys. Chem. A,
     2023, XX, XXXX-XXXX. DOI: 10.1021/acs.jpca.3c04382
   
   for DFT-D4:
   * E. Caldeweyher, C. Bannwarth and S. Grimme, J. Chem. Phys., 2017,
     147, 034112. DOI: 10.1063/1.4993215
   * E. Caldeweyher, S. Ehlert, A. Hansen, H. Neugebauer, S. Spicher,
     C. Bannwarth and S. Grimme, J. Chem. Phys., 2019, 150, 154122.
     DOI: 10.1063/1.5090222
   * E. Caldeweyher, J.-M. Mewes, S. Ehlert and S. Grimme, Phys. Chem. Chem. Phys.
     2020, 22, 8499-8512. DOI: 10.1039/D0CP00502A
   
   for sTDA-xTB:
   * S. Grimme and C. Bannwarth, J. Chem. Phys., 2016, 145, 054103.
     DOI: 10.1063/1.4959605
   
   in the mass-spec context:
   * V. Asgeirsson, C. Bauer and S. Grimme, Chem. Sci., 2017, 8, 4879.
     DOI: 10.1039/c7sc00601b
   * J. Koopman and S. Grimme, ACS Omega 2019, 4, 12, 15120-15133.
     DOI: 10.1021/acsomega.9b02011
   
   for metadynamics refer to:
   * S. Grimme, J. Chem. Theory Comput., 2019, 155, 2847-2862
     DOI: 10.1021/acs.jctc.9b00143
   
   for SPH calculations refer to:
   * S. Spicher and S. Grimme, J. Chem. Theory Comput., 2021, 17, 1701-1714
     DOI: 10.1021/acs.jctc.0c01306
   
   for ONIOM refer to:
   * C. Plett, A. Katbashev, S. Ehlert, S. Grimme, M. Bursch,
     Phys. Chem. Chem. Phys., 2023, 25, 17860-17868. DOI: 10.1039/D3CP02178E
   
   for DIPRO refer to:
   * J. Kohn, N. Gildemeister, S. Grimme, D. Fazzi, A. Hansen,
     J. Chem. Phys., 2023, just accepted.
   
   for PTB refer to:
   * S. Grimme, M. Mueller, A. Hansen, J. Chem. Phys., 2023, 158, 124111.
     DOI: 10.1063/5.0137838
   
   with help from (in alphabetical order)
   P. Atkinson, C. Bannwarth, F. Bohle, G. Brandenburg, E. Caldeweyher
   M. Checinski, S. Dohm, S. Ehlert, S. Ehrlich, I. Gerasimov, C. Hölzer
   A. Katbashev, J. Kohn, J. Koopman, C. Lavigne, S. Lehtola, F. März, M. Müller,
   F. Musil, H. Neugebauer, J. Pisarek, C. Plett, P. Pracht, F. Pultar,
   J. Seibert, P. Shushkov, S. Spicher, M. Stahn, M. Steiner, T. Strunk,
   J. Stückrath, T. Rose, and J. Unsleber
   
 * started run on 2025/05/01 at 18:01:06.041     
   ID    Z sym.   atoms
    1    7 N      1, 8, 16, 17, 23, 26, 27, 39, 45, 51, 58, 67
    2    6 C      2, 3, 5-7, 9, 10, 12-14, 18, 19, 21, 22, 24, 25, 28, 29,
                  31-37, 40, 41, 43, 46, 47, 49, 52, 53, 55-57, 59, 60,
                  62-64, 68, 69, 71-73
    3    8 O      4, 11, 15, 20, 30, 38, 42, 44, 48, 54, 61, 65, 66, 70
    4   16 S      50
    5    1 H      74-157

           -------------------------------------------------
          |                Calculation Setup                |
           -------------------------------------------------

          program call               : xtb /tmp/tmpr8z4olx2/HID/input.xyz --alpb ether --chrg -2 --input /tmp/tmpr8z4olx2/HID/constraints.inp --gfn 2
          hostname                   : fedora
          coordinate file            : /tmp/tmpr8z4olx2/HID/input.xyz
          omp threads                :                    32


molecular fragmentation (1/2 indicates fragments):
111111111111111111111111111111111111111111112222222222222222222222222222
222222222211111111111111111111111111111111111111222222222222222222222222
2222222222221
# atoms in fragment 1/2:    83    74
 fragment masses (1/2) :      615.66      445.64
CMA distance (Bohr)    :  13.480
constraining FC (au)   :  0.0500

           -------------------------------------------------
          |                 G F N 2 - x T B                 |
           -------------------------------------------------

        Reference                      10.1021/acs.jctc.8b01176
      * Hamiltonian:
        H0-scaling (s, p, d)           1.850000    2.230000    2.230000
        zeta-weighting                 0.500000
      * Dispersion:
        s8                             2.700000
        a1                             0.520000
        a2                             5.000000
        s9                             5.000000
      * Repulsion:
        kExp                           1.500000    1.000000
        rExp                           1.000000
      * Coulomb:
        alpha                          2.000000
        third order                    shell-resolved
        anisotropic                    true
        a3                             3.000000
        a5                             4.000000
        cn-shift                       1.200000
        cn-exp                         4.000000
        max-rad                        5.000000

      * Solvation model:               ALPB
        Solvent                        ether
        Parameter file                 internal GFN2-xTB/ALPB
        Dielectric constant                4.3300E+00
        Reference state                gsolv [1 M gas/solution]
        Free energy shift                  4.9534E-03 Eh       3.1083E+00 kcal/mol
        Temperature                        2.9815E+02 K
        Density                            7.1300E-01 kg/L
        Solvent mass                       7.4120E+01 g/mol
        Interaction kernel             P16
        Born radius scaling (c1)           1.5847E+00
        Born radii integrator          GBOBC
        Born offset                        0.0000E+00 a0       0.0000E+00 AA
        H-bond correction              true
        Ion screening                  false
        Surface tension                    1.0000E-05 Eh       1.5569E+01 dyn/cm
        Grid points                               230 per atom

          ...................................................
          :                      SETUP                      :
          :.................................................:
          :  # basis functions                 382          :
          :  # atomic orbitals                 381          :
          :  # shells                          231          :
          :  # electrons                       420          :
          :  max. iterations                   250          :
          :  Hamiltonian                  GFN2-xTB          :
          :  restarted?                      false          :
          :  GBSA solvation                   true          :
          :  PC potential                    false          :
          :  electronic temp.          300.0000000     K    :
          :  accuracy                    1.0000000          :
          :  -> integral cutoff          0.2500000E+02      :
          :  -> integral neglect         0.1000000E-07      :
          :  -> SCF convergence          0.1000000E-05 Eh   :
          :  -> wf. convergence          0.1000000E-03 e    :
          :  Broyden damping             0.4000000          :
          :  net charge                         -2          :
          :  unpaired electrons                  0          :
          ...................................................

 iter      E             dE          RMSdq      gap      omega  full diag
   1   -239.3695898 -0.239370E+03  0.435E+00    2.52       0.0  T
   2   -238.9666775  0.402912E+00  0.314E+00    0.74       1.0  T
   3   -239.7900500 -0.823373E+00  0.219E+00    0.55       1.0  T
   4   -240.1112736 -0.321224E+00  0.117E+00    0.92       1.0  T
   5   -240.1345422 -0.232686E-01  0.745E-01    0.65       1.0  T
   6   -239.2267801  0.907762E+00  0.217E+00    0.20       1.0  T
   7   -239.5015160 -0.274736E+00  0.177E+00    0.05       1.0  T
   8   -240.1363673 -0.634851E+00  0.612E-01    0.82       1.0  T
   9   -240.1413172 -0.494991E-02  0.550E-01    0.84       1.0  T
  10   -240.1468186 -0.550139E-02  0.488E-01    0.77       1.0  T
  11   -240.1504136 -0.359499E-02  0.446E-01    0.68       1.0  T
  12   -240.1609891 -0.105755E-01  0.333E-01    0.23       1.0  T
  13   -239.2467842  0.914205E+00  0.218E+00    0.66       1.0  T
  14   -240.1641347 -0.917351E+00  0.306E-01    0.20       1.0  T
  15   -240.1218432  0.422915E-01  0.556E-01    0.03       1.0  T
  16   -240.1609670 -0.391238E-01  0.331E-01    0.23       1.0  T
  17   -240.1816293 -0.206623E-01  0.986E-02    0.09       1.0  T
  18   -240.1807680  0.861277E-03  0.113E-01    0.11       1.0  T
  19   -240.1793104  0.145760E-02  0.147E-01    0.08       1.0  T
  20   -240.1815887 -0.227823E-02  0.949E-02    0.09       1.0  T
  21   -240.1813438  0.244898E-03  0.993E-02    0.09       1.0  T
  22   -240.1822754 -0.931654E-03  0.577E-02    0.10       1.0  T
  23   -240.1796791  0.259633E-02  0.131E-01    0.10       1.0  T
  24   -240.1823904 -0.271136E-02  0.503E-02    0.10       1.0  T
  25   -240.1826754 -0.284902E-03  0.309E-02    0.09       1.0  T
  26   -240.1828361 -0.160727E-03  0.614E-03    0.10       1.3  T
  27   -240.1828130  0.231230E-04  0.124E-02    0.10       1.0  T
  28   -240.1828423 -0.293695E-04  0.160E-03    0.10       5.0  T
  29   -240.1828426 -0.239794E-06  0.105E-03    0.10       7.6  T
  30   -240.1828425  0.753184E-07  0.118E-03    0.10       6.8  T
  31   -240.1828428 -0.292851E-06  0.102E-04    0.10      78.4  T
  32   -240.1828428  0.214796E-07  0.347E-04    0.10      23.0  T

   *** convergence criteria satisfied after 32 iterations ***

         #    Occupation            Energy/Eh            Energy/eV
      -------------------------------------------------------------
         1        2.0000           -0.6918509             -18.8262
       ...           ...                  ...                  ...
       204        2.0000           -0.3308690              -9.0034
       205        2.0000           -0.3240329              -8.8174
       206        2.0000           -0.3205704              -8.7232
       207        2.0000           -0.3109442              -8.4612
       208        2.0000           -0.2815924              -7.6625
       209        2.0000           -0.2728912              -7.4257
       210        1.7045           -0.2377456              -6.4694 (HOMO)
       211        0.2493           -0.2342289              -6.3737 (LUMO)
       212        0.0462           -0.2325230              -6.3273
       213                         -0.2069930              -5.6326
       214                         -0.2029748              -5.5232
       215                         -0.1990338              -5.4160
       ...                                ...                  ...
       381                          1.2109312              32.9511
      -------------------------------------------------------------
                  HL-Gap            0.0035167 Eh            0.0957 eV
             Fermi-level           -0.2360807 Eh           -6.4241 eV

 SCC (total)                   0 d,  0 h,  0 min,  1.141 sec
 SCC setup                      ...        0 min,  0.003 sec (  0.233%)
 Dispersion                     ...        0 min,  0.005 sec (  0.409%)
 classical contributions        ...        0 min,  0.000 sec (  0.020%)
 integral evaluation            ...        0 min,  0.009 sec (  0.791%)
 iterations                     ...        0 min,  1.100 sec ( 96.451%)
 molecular gradient             ...        0 min,  0.023 sec (  1.981%)
 printout                       ...        0 min,  0.001 sec (  0.113%)

         :::::::::::::::::::::::::::::::::::::::::::::::::::::
         ::                     SUMMARY                     ::
         :::::::::::::::::::::::::::::::::::::::::::::::::::::
         :: total energy            -236.513042051346 Eh    ::
         :: total w/o Gsasa/hb      -236.446172563952 Eh    ::
         :: gradient norm              0.893093293703 Eh/a0 ::
         :: HOMO-LUMO gap              0.095693617556 eV    ::
         ::.................................................::
         :: SCC energy              -240.173200138434 Eh    ::
         :: -> isotropic ES            0.898610274868 Eh    ::
         :: -> anisotropic ES          0.048309823881 Eh    ::
         :: -> anisotropic XC          0.111861193058 Eh    ::
         :: -> dispersion             -0.181509332534 Eh    ::
         :: -> Gsolv                  -0.287589911317 Eh    ::
         ::    -> Gelec               -0.220720423924 Eh    ::
         ::    -> Gsasa               -0.060015272917 Eh    ::
         ::    -> Ghb                 -0.011807652054 Eh    ::
         ::    -> Gshift               0.004953437577 Eh    ::
         :: repulsion energy           3.660158087088 Eh    ::
         :: add. restraining           0.000000000000 Eh    ::
         :: total charge              -1.999999999946 e     ::
         :::::::::::::::::::::::::::::::::::::::::::::::::::::

           -------------------------------------------------
          |                Property Printout                |
           -------------------------------------------------

    * Orbital Energies and Occupations

         #    Occupation            Energy/Eh            Energy/eV
      -------------------------------------------------------------
         1        2.0000           -0.6918509             -18.8262
       ...           ...                  ...                  ...
       198        2.0000           -0.3485164              -9.4836
       199        2.0000           -0.3467762              -9.4363
       200        2.0000           -0.3425671              -9.3217
       201        2.0000           -0.3405091              -9.2657
       202        2.0000           -0.3396151              -9.2414
       203        2.0000           -0.3314869              -9.0202
       204        2.0000           -0.3308690              -9.0034
       205        2.0000           -0.3240329              -8.8174
       206        2.0000           -0.3205704              -8.7232
       207        2.0000           -0.3109442              -8.4612
       208        2.0000           -0.2815924              -7.6625
       209        2.0000           -0.2728912              -7.4257
       210        1.7045           -0.2377456              -6.4694 (HOMO)
       211        0.2493           -0.2342289              -6.3737 (LUMO)
       212        0.0462           -0.2325230              -6.3273
       213                         -0.2069930              -5.6326
       214                         -0.2029748              -5.5232
       215                         -0.1990338              -5.4160
       216                         -0.1918671              -5.2210
       217                         -0.1907476              -5.1905
       218                         -0.1902068              -5.1758
       219                         -0.1887751              -5.1368
       220                         -0.1859044              -5.0587
       221                         -0.1773403              -4.8257
       ...                                ...                  ...
       381                          1.2109312              32.9511
      -------------------------------------------------------------
                  HL-Gap            0.0035167 Eh            0.0957 eV
             Fermi-level           -0.2360807 Eh           -6.4241 eV

     #   Z          covCN         q      C6AA      α(0)
     1   7 N        2.632    -0.362    29.350     8.046
     2   6 C        3.794     0.031    20.053     6.377
     3   6 C        2.757     0.269    22.463     7.761
     4   8 O        0.859    -0.485    23.452     6.493
     5   6 C        3.857    -0.014    20.789     6.485
     6   6 C        3.764    -0.117    22.782     6.803
     7   6 C        3.766    -0.121    22.849     6.813
     8   7 N        2.690    -0.167    24.620     7.369
     9   6 C        3.796     0.020    20.240     6.406
    10   6 C        2.753     0.268    22.481     7.764
    11   8 O        0.858    -0.499    23.767     6.536
    12   6 C        3.804    -0.075    21.936     6.668
    13   6 C        3.806    -0.098    22.369     6.733
    14   6 C        2.742     0.282    22.228     7.720
    15   8 O        0.859    -0.511    24.021     6.571
    16   7 N        2.639    -0.275    27.112     7.733
    17   7 N        2.689    -0.162    24.494     7.350
    18   6 C        3.800     0.027    20.124     6.387
    19   6 C        2.758     0.265    22.531     7.773
    20   8 O        0.859    -0.498    23.751     6.534
    21   6 C        3.814    -0.063    21.697     6.630
    22   6 C        3.089    -0.014    28.262     8.714
    23   7 N        2.846    -0.131    23.828     7.250
    24   6 C        3.056    -0.003    28.057     8.687
    25   6 C        2.107    -0.132    34.535     9.496
    26   7 N        1.979    -0.402    31.375     8.307
    27   7 N        2.693    -0.154    24.329     7.326
    28   6 C        3.799     0.026    20.144     6.391
    29   6 C        2.755     0.262    22.587     7.782
    30   8 O        0.858    -0.468    23.090     6.443
    31   6 C        3.812    -0.073    21.895     6.660
    32   6 C        2.960    -0.001    28.039     8.685
    33   6 C        2.925    -0.042    29.052     8.839
    34   6 C        2.925    -0.045    29.129     8.851
    35   6 C        2.917    -0.077    29.934     8.972
    36   6 C        2.916    -0.066    29.633     8.927
    37   6 C        2.846     0.139    24.959     8.188
    38   8 O        1.661    -0.439    21.613     6.276
    39   7 N        2.689    -0.174    24.760     7.390
    40   6 C        3.792     0.017    20.290     6.415
    41   6 C        2.764     0.161    24.508     8.107
    42   8 O        0.856    -0.421    22.107     6.304
    43   6 C        3.682     0.072    19.581     6.337
    44   8 O        1.654    -0.461    22.071     6.342
    45   7 N        2.638    -0.350    29.020     8.001
    46   6 C        3.800     0.053    19.693     6.318
    47   6 C        2.758     0.255    22.717     7.805
    48   8 O        0.858    -0.481    23.359     6.480
    49   6 C        3.801     0.016    20.309     6.416
    50  16 S        1.900    -0.310   154.506    20.921
    51   7 N        2.754    -0.115    23.512     7.202
    52   6 C        3.821     0.024    20.164     6.390
    53   6 C        2.750     0.270    22.439     7.757
    54   8 O        0.858    -0.499    23.758     6.535
    55   6 C        3.835    -0.064    21.703     6.628
    56   6 C        3.835    -0.062    21.661     6.621
    57   6 C        3.762     0.003    20.570     6.465
    58   7 N        2.687    -0.167    24.624     7.370
    59   6 C        3.795     0.034    20.011     6.370
    60   6 C        2.761     0.265    22.529     7.773
    61   8 O        0.858    -0.517    24.155     6.589
    62   6 C        3.816    -0.055    21.545     6.606
    63   6 C        3.808    -0.093    22.269     6.718
    64   6 C        2.689     0.363    20.834     7.470
    65   8 O        0.857    -0.636    27.013     6.968
    66   8 O        0.856    -0.652    27.429     7.022
    67   7 N        2.759    -0.081    22.822     7.095
    68   6 C        3.825     0.039    19.899     6.348
    69   6 C        2.766     0.127    25.198     8.221
    70   8 O        0.856    -0.412    21.915     6.276
    71   6 C        3.844    -0.059    21.598     6.611
    72   6 C        3.844    -0.063    21.684     6.624
    73   6 C        3.769    -0.003    20.667     6.479
    74   1 H        0.980     0.079     1.981     2.199
    75   1 H        0.980     0.011     2.868     2.646
    76   1 H        0.980     0.030     2.585     2.512
    77   1 H        0.980    -0.009     3.205     2.798
    78   1 H        0.980     0.006     2.949     2.683
    79   1 H        0.980     0.012     2.856     2.641
    80   1 H        0.980     0.007     2.938     2.679
    81   1 H        0.980     0.006     2.947     2.683
    82   1 H        0.980     0.003     2.996     2.705
    83   1 H        0.860     0.145     1.434     1.876
    84   1 H        0.860     0.168     1.288     1.778
    85   1 H        0.927     0.007     2.935     2.679
    86   1 H        0.927     0.044     2.402     2.424
    87   1 H        0.927     0.037     2.492     2.469
    88   1 H        0.927     0.034     2.525     2.485
    89   1 H        0.927     0.054     2.269     2.356
    90   1 H        0.927     0.039     2.457     2.451
    91   1 H        0.927     0.049     2.329     2.386
    92   1 H        0.927     0.059     2.208     2.324
    93   1 H        0.861     0.201     1.102     1.644
    94   1 H        0.927     0.083     1.947     2.182
    95   1 H        0.927     0.059     2.208     2.324
    96   1 H        0.927     0.057     2.232     2.336
    97   1 H        0.927     0.072     2.065     2.247
    98   1 H        0.927     0.084     1.938     2.177
    99   1 H        0.861     0.219     1.016     1.579
   100   1 H        0.861     0.233     0.950     1.527
   101   1 H        0.861     0.213     1.043     1.600
   102   1 H        0.926     0.067     2.116     2.275
   103   1 H        0.927     0.036     2.502     2.474
   104   1 H        0.927     0.041     2.432     2.438
   105   1 H        0.929    -0.043     3.925     3.098
   106   1 H        0.861     0.203     1.090     1.635
   107   1 H        0.927     0.080     1.976     2.198
   108   1 H        0.927     0.066     2.132     2.283
   109   1 H        0.927     0.060     2.200     2.319
   110   1 H        0.929     0.040     2.453     2.449
   111   1 H        0.929     0.056     2.247     2.344
   112   1 H        0.929     0.045     2.381     2.413
   113   1 H        0.929     0.066     2.128     2.281
   114   1 H        0.807     0.331     0.633     1.250
   115   1 H        0.861     0.204     1.084     1.631
   116   1 H        0.927     0.074     2.045     2.236
   117   1 H        0.929     0.037     2.488     2.467
   118   1 H        0.927     0.039     2.456     2.451
   119   1 H        0.927     0.071     2.070     2.250
   120   1 H        0.804     0.321     0.662     1.278
   121   1 H        0.860     0.145     1.434     1.876
   122   1 H        0.860     0.167     1.294     1.782
   123   1 H        0.927     0.004     2.991     2.705
   124   1 H        0.927     0.045     2.379     2.412
   125   1 H        0.927     0.063     2.161     2.299
   126   1 H        0.921     0.190     1.152     1.679
   127   1 H        0.927     0.080     1.977     2.199
   128   1 H        0.927     0.064     2.158     2.297
   129   1 H        0.927     0.058     2.219     2.329
   130   1 H        0.927     0.064     2.152     2.294
   131   1 H        0.927     0.055     2.262     2.352
   132   1 H        0.927     0.066     2.133     2.284
   133   1 H        0.927     0.056     2.251     2.346
   134   1 H        0.861     0.202     1.094     1.638
   135   1 H        0.927     0.056     2.244     2.342
   136   1 H        0.927     0.040     2.443     2.444
   137   1 H        0.927     0.059     2.214     2.327
   138   1 H        0.927     0.031     2.576     2.510
   139   1 H        0.927     0.038     2.472     2.459
   140   1 H        0.927     0.062     2.178     2.308
   141   1 H        0.929     0.092     1.855     2.129
   142   1 H        0.927     0.077     2.011     2.218
   143   1 H        0.927     0.054     2.267     2.354
   144   1 H        0.926     0.066     2.127     2.281
   145   1 H        0.926     0.061     2.192     2.315
   146   1 H        0.927     0.059     2.213     2.326
   147   1 H        0.927     0.066     2.128     2.281
   148   1 H        0.981     0.016     2.794     2.612
   149   1 H        0.980    -0.013     3.280     2.830
   150   1 H        0.980    -0.032     3.657     2.988
   151   1 H        0.980     0.015     2.809     2.619
   152   1 H        0.980    -0.006     3.153     2.775
   153   1 H        0.980    -0.011     3.244     2.814
   154   1 H        0.980    -0.007     3.165     2.780
   155   1 H        0.980    -0.006     3.160     2.778
   156   1 H        0.980    -0.003     3.102     2.752
   157   1 H        0.858     0.114     1.677     2.029

 Mol. C6AA /au·bohr⁶  :     234526.453578
 Mol. C8AA /au·bohr⁸  :    5235138.496205
 Mol. α(0) /au        :        731.639857


Wiberg/Mayer (AO) data.
largest (>0.10) Wiberg bond orders for each atom

 ---------------------------------------------------------------------------
     #   Z sym  total        # sym  WBO       # sym  WBO       # sym  WBO
 ---------------------------------------------------------------------------
     1   7 N    2.989 --     2 C    1.010    83 H    0.965    84 H    0.949
     2   6 C    3.987 --     1 N    1.010    85 H    0.962     5 C    0.959
                             3 C    0.947
     3   6 C    3.945 --     4 O    1.644     8 N    1.289     2 C    0.947
     4   8 O    1.951 --     3 C    1.644     8 N    0.196
     5   6 C    3.992 --     7 C    1.010     6 C    1.009    86 H    0.970
                             2 C    0.959
     6   6 C    3.995 --     5 C    1.009    88 H    0.986    87 H    0.986
                            89 H    0.984
     7   6 C    3.995 --     5 C    1.010    90 H    0.985    91 H    0.983
                            92 H    0.978
     8   7 N    3.468 --     3 C    1.289     9 C    0.983    93 H    0.927
                             4 O    0.196
     9   6 C    3.969 --     8 N    0.983    12 C    0.967    94 H    0.952
                            10 C    0.941
    10   6 C    3.948 --    11 O    1.615    17 N    1.315     9 C    0.941
    11   8 O    1.948 --    10 C    1.615    17 N    0.199
    12   6 C    3.992 --    13 C    1.000    96 H    0.976    95 H    0.971
                             9 C    0.967
    13   6 C    3.991 --    12 C    1.000    14 C    0.971    97 H    0.965
                            98 H    0.953
    14   6 C    3.947 --    15 O    1.627    16 N    1.322    13 C    0.971
    15   8 O    1.925 --    14 C    1.627    16 N    0.197
    16   7 N    3.409 --    14 C    1.322   100 H    0.924    99 H    0.922
                            15 O    0.197
    17   7 N    3.486 --    10 C    1.315    18 C    0.979   101 H    0.924
                            11 O    0.199
    18   6 C    3.964 --    17 N    0.979   102 H    0.955    19 C    0.947
                            21 C    0.947
    19   6 C    3.949 --    20 O    1.613    27 N    1.311    18 C    0.947
    20   8 O    1.922 --    19 C    1.613    27 N    0.195
    21   6 C    3.987 --    22 C    1.003   104 H    0.972   103 H    0.971
                            18 C    0.947
    22   6 C    3.911 --    24 C    1.560    23 N    1.144    21 C    1.003
                            25 C    0.104
    23   7 N    3.523 --    25 C    1.272    22 C    1.144   157 H    0.951
    24   6 C    3.946 --    22 C    1.560    26 N    1.265   105 H    0.971
    25   6 C    2.929 --    26 N    1.490    23 N    1.272    22 C    0.104
    26   7 N    2.922 --    25 C    1.490    24 C    1.265
    27   7 N    3.486 --    19 C    1.311    28 C    0.981   106 H    0.927
                            20 O    0.195
    28   6 C    3.962 --    27 N    0.981   107 H    0.955    31 C    0.954
                            29 C    0.937
    29   6 C    3.949 --    30 O    1.658    39 N    1.284    28 C    0.937
    30   8 O    1.975 --    29 C    1.658    39 N    0.200
    31   6 C    3.988 --    32 C    1.004   109 H    0.973   108 H    0.969
                            28 C    0.954
    32   6 C    3.986 --    33 C    1.415    34 C    1.407    31 C    1.004
    33   6 C    3.993 --    35 C    1.444    32 C    1.415   110 H    0.972
                            36 C    0.107
    34   6 C    3.991 --    36 C    1.452    32 C    1.407   111 H    0.972
                            35 C    0.109
    35   6 C    3.990 --    33 C    1.444    37 C    1.382   112 H    0.967
                            34 C    0.109
    36   6 C    3.988 --    34 C    1.452    37 C    1.374   113 H    0.970
                            33 C    0.107
    37   6 C    3.936 --    35 C    1.382    36 C    1.374    38 O    1.049
    38   8 O    2.076 --    37 C    1.049   114 H    0.870
    39   7 N    3.446 --    29 C    1.284    40 C    0.959   115 H    0.920
                            30 O    0.200
    40   6 C    3.959 --    43 C    0.984    41 C    0.960    39 N    0.959
                           116 H    0.952
    41   6 C    3.700 --    42 O    1.738    40 C    0.960   117 H    0.955
    42   8 O    1.850 --    41 C    1.738
    43   6 C    3.960 --    44 O    1.004    40 C    0.984   118 H    0.972
                           119 H    0.970
    44   8 O    1.943 --    43 C    1.004   120 H    0.876
    45   7 N    2.999 --    46 C    1.021   121 H    0.963   122 H    0.948
    46   6 C    3.991 --    45 N    1.021    49 C    0.983   123 H    0.957
                            47 C    0.933
    47   6 C    3.950 --    48 O    1.644    51 N    1.279    46 C    0.933
    48   8 O    1.966 --    47 C    1.644    51 N    0.198
    49   6 C    3.972 --    46 C    0.983   124 H    0.979    50 S    0.978
                           125 H    0.971
    50  16 S    1.998 --    49 C    0.978   126 H    0.945
    51   7 N    3.498 --    47 C    1.279    52 C    0.969    57 C    0.962
                            48 O    0.198
    52   6 C    3.965 --    55 C    0.978    51 N    0.969   127 H    0.955
                            53 C    0.934
    53   6 C    3.949 --    54 O    1.625    58 N    1.318    52 C    0.934
    54   8 O    1.937 --    53 C    1.625    58 N    0.200
    55   6 C    3.991 --    56 C    1.006    52 C    0.978   128 H    0.976
                           129 H    0.976
    56   6 C    3.993 --    55 C    1.006    57 C    1.006   131 H    0.978
                           130 H    0.975
    57   6 C    3.963 --    56 C    1.006   133 H    0.969   132 H    0.965
                            51 N    0.962
    58   7 N    3.484 --    53 C    1.318    59 C    0.971   134 H    0.918
                            54 O    0.200
    59   6 C    3.967 --    62 C    0.979    58 N    0.971   135 H    0.954
                            60 C    0.942
    60   6 C    3.953 --    61 O    1.606    67 N    1.307    59 C    0.942
    61   8 O    1.922 --    60 C    1.606    67 N    0.196
    62   6 C    3.989 --    63 C    1.004    59 C    0.979   136 H    0.975
                           137 H    0.966
    63   6 C    3.990 --    62 C    1.004   138 H    0.973   139 H    0.964
                            64 C    0.939
    64   6 C    3.940 --    65 O    1.507    66 O    1.469    63 C    0.939
    65   8 O    1.794 --    64 C    1.507    66 O    0.216
    66   8 O    1.784 --    64 C    1.469    65 O    0.216
    67   7 N    3.523 --    60 C    1.307    68 C    0.967    73 C    0.966
                            61 O    0.196
    68   6 C    3.970 --    69 C    0.978    67 N    0.967    71 C    0.960
                           140 H    0.950
    69   6 C    3.818 --    70 O    1.833    68 C    0.978   141 H    0.845
    70   8 O    1.966 --    69 C    1.833
    71   6 C    3.986 --    72 C    1.011   143 H    0.973   142 H    0.969
                            68 C    0.960
    72   6 C    3.994 --    71 C    1.011    73 C    1.006   145 H    0.977
                           144 H    0.973
    73   6 C    3.964 --    72 C    1.006   146 H    0.971   147 H    0.967
                            67 N    0.966
    74   1 H    0.994 --   148 H    0.882
    75   1 H    1.000 --   149 H    0.990
    76   1 H    0.999 --   150 H    0.918
    77   1 H    1.000 --   151 H    0.911
    78   1 H    1.000 --   152 H    0.999
    79   1 H    1.000 --   153 H    0.993
    80   1 H    1.000 --   154 H    0.993
    81   1 H    1.000 --   155 H    0.998
    82   1 H    1.000 --   156 H    0.993
    83   1 H    0.979 --     1 N    0.965
    84   1 H    0.971 --     1 N    0.949
    85   1 H    1.000 --     2 C    0.962
    86   1 H    0.998 --     5 C    0.970
    87   1 H    0.999 --     6 C    0.986
    88   1 H    0.999 --     6 C    0.986
    89   1 H    0.997 --     6 C    0.984
    90   1 H    0.998 --     7 C    0.985
    91   1 H    0.997 --     7 C    0.983
    92   1 H    0.996 --     7 C    0.978
    93   1 H    0.960 --     8 N    0.927
    94   1 H    0.993 --     9 C    0.952
    95   1 H    0.996 --    12 C    0.971
    96   1 H    0.997 --    12 C    0.976
    97   1 H    0.995 --    13 C    0.965
    98   1 H    0.993 --    13 C    0.953
    99   1 H    0.952 --    16 N    0.922
   100   1 H    0.945 --    16 N    0.924
   101   1 H    0.955 --    17 N    0.924
   102   1 H    0.995 --    18 C    0.955
   103   1 H    0.998 --    21 C    0.971
   104   1 H    0.998 --    21 C    0.972
   105   1 H    0.997 --    24 C    0.971
   106   1 H    0.959 --    27 N    0.927
   107   1 H    0.993 --    28 C    0.955
   108   1 H    0.995 --    31 C    0.969
   109   1 H    0.996 --    31 C    0.973
   110   1 H    0.998 --    33 C    0.972
   111   1 H    0.996 --    34 C    0.972
   112   1 H    0.998 --    35 C    0.967
   113   1 H    0.995 --    36 C    0.970
   114   1 H    0.890 --    38 O    0.870
   115   1 H    0.958 --    39 N    0.920
   116   1 H    0.991 --    40 C    0.952
   117   1 H    0.999 --    41 C    0.955
   118   1 H    0.998 --    43 C    0.972
   119   1 H    0.994 --    43 C    0.970
   120   1 H    0.897 --    44 O    0.876
   121   1 H    0.979 --    45 N    0.963
   122   1 H    0.972 --    45 N    0.948
   123   1 H    1.000 --    46 C    0.957
   124   1 H    0.998 --    49 C    0.979
   125   1 H    0.996 --    49 C    0.971
   126   1 H    0.964 --    50 S    0.945
   127   1 H    0.993 --    52 C    0.955
   128   1 H    0.996 --    55 C    0.976
   129   1 H    0.996 --    55 C    0.976
   130   1 H    0.995 --    56 C    0.975
   131   1 H    0.997 --    56 C    0.978
   132   1 H    0.996 --    57 C    0.965
   133   1 H    0.997 --    57 C    0.969
   134   1 H    0.959 --    58 N    0.918
   135   1 H    0.997 --    59 C    0.954
   136   1 H    0.998 --    62 C    0.975
   137   1 H    0.997 --    62 C    0.966
   138   1 H    0.999 --    63 C    0.973
   139   1 H    0.998 --    63 C    0.964
   140   1 H    0.996 --    68 C    0.950
   141   1 H    0.991 --    69 C    0.845
   142   1 H    0.994 --    71 C    0.969
   143   1 H    0.997 --    71 C    0.973
   144   1 H    0.995 --    72 C    0.973
   145   1 H    0.996 --    72 C    0.977
   146   1 H    0.997 --    73 C    0.971
   147   1 H    0.996 --    73 C    0.967
   148   1 H    1.000 --    74 H    0.882
   149   1 H    1.000 --    75 H    0.990
   150   1 H    0.999 --    76 H    0.918
   151   1 H    1.000 --    77 H    0.911
   152   1 H    1.000 --    78 H    0.999
   153   1 H    1.000 --    79 H    0.993
   154   1 H    1.000 --    80 H    0.993
   155   1 H    1.000 --    81 H    0.998
   156   1 H    1.000 --    82 H    0.993
   157   1 H    0.987 --    23 N    0.951
 ---------------------------------------------------------------------------

Topologies differ in total number of bonds
Writing topology from bond orders to xtbtopo.mol

molecular dipole:
                 x           y           z       tot (Debye)
 q only:      114.776     -59.553       9.766
   full:      114.594     -59.791      10.827     329.683
molecular quadrupole (traceless):
                xx          xy          yy          xz          yz          zz
 q only:    -5573.295    5101.288    1574.797    -819.066     514.889    3998.499
  q+dip:    -5509.228    5117.430    1522.292    -897.107     568.301    3986.936
   full:    -5510.547    5115.108    1523.588    -897.361     567.140    3986.959


           -------------------------------------------------
          | TOTAL ENERGY             -236.513042051346 Eh   |
          | GRADIENT NORM               0.893093293703 Eh/α |
          | HOMO-LUMO GAP               0.095693617556 eV   |
           -------------------------------------------------
########################################################################
[WARNING] Runtime exception occurred
-3- restart_readRestart: Dimension missmatch in restart file.
-2- restart_readRestart: Multiplicity missmatch in restart file.
-1- restart_readRestart: Number of electron missmatch in restart file.
########################################################################

------------------------------------------------------------------------
 * finished run on 2025/05/01 at 18:01:07.195     
------------------------------------------------------------------------
 total:
 * wall-time:     0 d,  0 h,  0 min,  1.154 sec
 *  cpu-time:     0 d,  0 h,  0 min, 33.400 sec
 * ratio c/w:    28.935 speedup
 SCF:
 * wall-time:     0 d,  0 h,  0 min,  1.141 sec
 *  cpu-time:     0 d,  0 h,  0 min, 33.082 sec
 * ratio c/w:    28.989 speedup

