      -----------------------------------------------------------      
     |                   =====================                   |     
     |                           x T B                           |     
     |                   =====================                   |     
     |                         S. Grimme                         |     
     |          Mulliken Center for Theoretical Chemistry        |     
     |                    University of Bonn                     |     
      -----------------------------------------------------------      

   * xtb version 6.7.1 (edcfbbe) compiled by 'conda@afd1a870197c' on 2025-04-11

   xtb is free software: you can redistribute it and/or modify it under
   the terms of the GNU Lesser General Public License as published by
   the Free Software Foundation, either version 3 of the License, or
   (at your option) any later version.
   
   xtb is distributed in the hope that it will be useful,
   but WITHOUT ANY WARRANTY; without even the implied warranty of
   MERCHANTABILITY or FITNESS FOR A PARTICULAR PURPOSE.  See the
   GNU Lesser General Public License for more details.
   
   Cite this work as:
   * C. Bannwarth, E. Caldeweyher, S. Ehlert, A. Hansen, P. Pracht,
     J. Seibert, S. Spicher, S. Grimme, WIREs Comput. Mol. Sci., 2020, 11,
     e01493. DOI: 10.1002/wcms.1493
   
   for GFN2-xTB:
   * C. Bannwarth, S. Ehlert and S. Grimme., J. Chem. Theory Comput., 2019,
     15, 1652-1671. DOI: 10.1021/acs.jctc.8b01176
   for GFN1-xTB:
   * S. Grimme, C. Bannwarth, P. Shushkov, J. Chem. Theory Comput., 2017,
     13, 1989-2009. DOI: 10.1021/acs.jctc.7b00118
   for GFN0-xTB:
   * P. Pracht, E. Caldeweyher, S. Ehlert, S. Grimme, ChemRxiv, 2019, preprint.
     DOI: 10.26434/chemrxiv.8326202.v1
   for GFN-FF:
   * S. Spicher and S. Grimme, Angew. Chem. Int. Ed., 2020, 59, 15665-15673.
     DOI: 10.1002/anie.202004239
   
   for ALPB and GBSA implicit solvation:
   * S. Ehlert, M. Stahn, S. Spicher, S. Grimme, J. Chem. Theory Comput.,
     2021, 17, 4250-4261. DOI: 10.1021/acs.jctc.1c00471
   
   for ddCOSMO and CPCM-X implicit solvation:
   * M. Stahn, S. Ehlert, S. Grimme, J. Phys. Chem. A,
     2023, XX, XXXX-XXXX. DOI: 10.1021/acs.jpca.3c04382
   
   for DFT-D4:
   * E. Caldeweyher, C. Bannwarth and S. Grimme, J. Chem. Phys., 2017,
     147, 034112. DOI: 10.1063/1.4993215
   * E. Caldeweyher, S. Ehlert, A. Hansen, H. Neugebauer, S. Spicher,
     C. Bannwarth and S. Grimme, J. Chem. Phys., 2019, 150, 154122.
     DOI: 10.1063/1.5090222
   * E. Caldeweyher, J.-M. Mewes, S. Ehlert and S. Grimme, Phys. Chem. Chem. Phys.
     2020, 22, 8499-8512. DOI: 10.1039/D0CP00502A
   
   for sTDA-xTB:
   * S. Grimme and C. Bannwarth, J. Chem. Phys., 2016, 145, 054103.
     DOI: 10.1063/1.4959605
   
   in the mass-spec context:
   * V. Asgeirsson, C. Bauer and S. Grimme, Chem. Sci., 2017, 8, 4879.
     DOI: 10.1039/c7sc00601b
   * J. Koopman and S. Grimme, ACS Omega 2019, 4, 12, 15120-15133.
     DOI: 10.1021/acsomega.9b02011
   
   for metadynamics refer to:
   * S. Grimme, J. Chem. Theory Comput., 2019, 155, 2847-2862
     DOI: 10.1021/acs.jctc.9b00143
   
   for SPH calculations refer to:
   * S. Spicher and S. Grimme, J. Chem. Theory Comput., 2021, 17, 1701-1714
     DOI: 10.1021/acs.jctc.0c01306
   
   for ONIOM refer to:
   * C. Plett, A. Katbashev, S. Ehlert, S. Grimme, M. Bursch,
     Phys. Chem. Chem. Phys., 2023, 25, 17860-17868. DOI: 10.1039/D3CP02178E
   
   for DIPRO refer to:
   * J. Kohn, N. Gildemeister, S. Grimme, D. Fazzi, A. Hansen,
     J. Chem. Phys., 2023, just accepted.
   
   for PTB refer to:
   * S. Grimme, M. Mueller, A. Hansen, J. Chem. Phys., 2023, 158, 124111.
     DOI: 10.1063/5.0137838
   
   with help from (in alphabetical order)
   P. Atkinson, C. Bannwarth, F. Bohle, G. Brandenburg, E. Caldeweyher
   M. Checinski, S. Dohm, S. Ehlert, S. Ehrlich, I. Gerasimov, C. Hölzer
   A. Katbashev, J. Kohn, J. Koopman, C. Lavigne, S. Lehtola, F. März, M. Müller,
   F. Musil, H. Neugebauer, J. Pisarek, C. Plett, P. Pracht, F. Pultar,
   J. Seibert, P. Shushkov, S. Spicher, M. Stahn, M. Steiner, T. Strunk,
   J. Stückrath, T. Rose, and J. Unsleber
   
 * started run on 2025/05/01 at 18:01:07.211     
   ID    Z sym.   atoms
    1    7 N      1, 8, 16, 17, 23, 26, 27, 39, 45, 51, 58, 67
    2    6 C      2, 3, 5-7, 9, 10, 12-14, 18, 19, 21, 22, 24, 25, 28, 29,
                  31-37, 40, 41, 43, 46, 47, 49, 52, 53, 55-57, 59, 60,
                  62-64, 68, 69, 71-73
    3    8 O      4, 11, 15, 20, 30, 38, 42, 44, 48, 54, 61, 65, 66, 70
    4   16 S      50
    5    1 H      74-157

           -------------------------------------------------
          |                Calculation Setup                |
           -------------------------------------------------

          program call               : xtb /tmp/tmpr8z4olx2/HIE/input.xyz --alpb ether --chrg -2 --input /tmp/tmpr8z4olx2/HIE/constraints.inp --gfn 2
          hostname                   : fedora
          coordinate file            : /tmp/tmpr8z4olx2/HIE/input.xyz
          omp threads                :                    32


molecular fragmentation (1/2 indicates fragments):
111111111111111111111111111111111111111111112222222222222222222222222222
222222222211111111111111111111111111111111111111222222222222222222222222
2222222222221
# atoms in fragment 1/2:    83    74
 fragment masses (1/2) :      615.66      445.64
CMA distance (Bohr)    :  13.485
constraining FC (au)   :  0.0500

           -------------------------------------------------
          |                 G F N 2 - x T B                 |
           -------------------------------------------------

        Reference                      10.1021/acs.jctc.8b01176
      * Hamiltonian:
        H0-scaling (s, p, d)           1.850000    2.230000    2.230000
        zeta-weighting                 0.500000
      * Dispersion:
        s8                             2.700000
        a1                             0.520000
        a2                             5.000000
        s9                             5.000000
      * Repulsion:
        kExp                           1.500000    1.000000
        rExp                           1.000000
      * Coulomb:
        alpha                          2.000000
        third order                    shell-resolved
        anisotropic                    true
        a3                             3.000000
        a5                             4.000000
        cn-shift                       1.200000
        cn-exp                         4.000000
        max-rad                        5.000000

      * Solvation model:               ALPB
        Solvent                        ether
        Parameter file                 internal GFN2-xTB/ALPB
        Dielectric constant                4.3300E+00
        Reference state                gsolv [1 M gas/solution]
        Free energy shift                  4.9534E-03 Eh       3.1083E+00 kcal/mol
        Temperature                        2.9815E+02 K
        Density                            7.1300E-01 kg/L
        Solvent mass                       7.4120E+01 g/mol
        Interaction kernel             P16
        Born radius scaling (c1)           1.5847E+00
        Born radii integrator          GBOBC
        Born offset                        0.0000E+00 a0       0.0000E+00 AA
        H-bond correction              true
        Ion screening                  false
        Surface tension                    1.0000E-05 Eh       1.5569E+01 dyn/cm
        Grid points                               230 per atom

          ...................................................
          :                      SETUP                      :
          :.................................................:
          :  # basis functions                 382          :
          :  # atomic orbitals                 381          :
          :  # shells                          231          :
          :  # electrons                       420          :
          :  max. iterations                   250          :
          :  Hamiltonian                  GFN2-xTB          :
          :  restarted?                      false          :
          :  GBSA solvation                   true          :
          :  PC potential                    false          :
          :  electronic temp.          300.0000000     K    :
          :  accuracy                    1.0000000          :
          :  -> integral cutoff          0.2500000E+02      :
          :  -> integral neglect         0.1000000E-07      :
          :  -> SCF convergence          0.1000000E-05 Eh   :
          :  -> wf. convergence          0.1000000E-03 e    :
          :  Broyden damping             0.4000000          :
          :  net charge                         -2          :
          :  unpaired electrons                  0          :
          ...................................................

 iter      E             dE          RMSdq      gap      omega  full diag
   1   -239.3323750 -0.239332E+03  0.436E+00    2.52       0.0  T
   2   -238.9593198  0.373055E+00  0.314E+00    0.69       1.0  T
   3   -239.7790226 -0.819703E+00  0.218E+00    0.49       1.0  T
   4   -240.1008724 -0.321850E+00  0.117E+00    0.86       1.0  T
   5   -240.1229319 -0.220595E-01  0.736E-01    0.58       1.0  T
   6   -239.2294477  0.893484E+00  0.216E+00    0.28       1.0  T
   7   -239.3001780 -0.707303E-01  0.206E+00    0.16       1.0  T
   8   -240.1338257 -0.833648E+00  0.534E-01    0.95       1.0  T
   9   -240.1356104 -0.178468E-02  0.471E-01    0.98       1.0  T
  10   -240.1374353 -0.182491E-02  0.435E-01    0.53       1.0  T
  11   -239.3287671  0.808668E+00  0.206E+00    0.20       1.0  T
  12   -240.1392276 -0.810461E+00  0.412E-01    0.34       1.0  T
  13   -240.1472475 -0.801986E-02  0.357E-01    0.19       1.0  T
  14   -240.1141995  0.330480E-01  0.557E-01    0.03       1.0  T
  15   -240.1644466 -0.502471E-01  0.209E-01    0.10       1.0  T
  16   -240.1424176  0.220290E-01  0.396E-01    0.05       1.0  T
  17   -240.1599999 -0.175823E-01  0.250E-01    0.07       1.0  T
  18   -240.1539224  0.607756E-02  0.296E-01    0.06       1.0  T
  19   -240.1653618 -0.114395E-01  0.140E-01    0.08       1.0  T
  20   -239.6188586  0.546503E+00  0.166E+00    0.07       1.0  T
  21   -240.1561253 -0.537267E+00  0.283E-01    0.15       1.0  T
  22   -240.1630738 -0.694843E-02  0.206E-01    0.12       1.0  T
  23   -240.1655745 -0.250070E-02  0.161E-01    0.11       1.0  T
  24   -240.1662748 -0.700314E-03  0.139E-01    0.11       1.0  T
  25   -240.1672548 -0.979973E-03  0.104E-01    0.10       1.0  T
  26   -240.1679915 -0.736720E-03  0.695E-02    0.10       1.0  T
  27   -240.1687673 -0.775786E-03  0.187E-02    0.10       1.0  T
  28   -240.1681638  0.603421E-03  0.609E-02    0.10       1.0  T
  29   -240.1679925  0.171380E-03  0.672E-02    0.10       1.0  T
  30   -240.1678734  0.119089E-03  0.750E-02    0.10       1.0  T
  31   -240.1687042 -0.830788E-03  0.266E-02    0.10       1.0  T
  32   -240.1683289  0.375221E-03  0.530E-02    0.10       1.0  T
  33   -240.1686736 -0.344652E-03  0.294E-02    0.10       1.0  T
  34   -240.1685096  0.164046E-03  0.422E-02    0.10       1.0  T
  35   -240.1686951 -0.185503E-03  0.274E-02    0.10       1.0  T
  36   -240.1686446  0.504256E-04  0.322E-02    0.10       1.0  T
  37   -240.1687641 -0.119468E-03  0.196E-02    0.10       1.0  T
  38   -240.1687547  0.938940E-05  0.209E-02    0.10       1.0  T
  39   -240.1688111 -0.563570E-04  0.115E-02    0.10       1.0  T
  40   -240.1688120 -0.912935E-06  0.112E-02    0.10       1.0  T
  41   -240.1688301 -0.180868E-04  0.544E-03    0.10       1.5  T
  42   -240.1688312 -0.110667E-05  0.484E-03    0.10       1.6  T
  43   -240.1688352 -0.400714E-05  0.145E-03    0.10       5.5  T
  44   -240.1688353 -0.135127E-06  0.115E-03    0.10       6.9  T
  45   -240.1688355 -0.212897E-06  0.452E-04    0.10      17.7  T
  46   -240.1688356 -0.260652E-07  0.261E-04    0.10      30.5  T

   *** convergence criteria satisfied after 46 iterations ***

         #    Occupation            Energy/Eh            Energy/eV
      -------------------------------------------------------------
         1        2.0000           -0.6904000             -18.7867
       ...           ...                  ...                  ...
       204        2.0000           -0.3250843              -8.8460
       205        2.0000           -0.3197728              -8.7015
       206        2.0000           -0.3165916              -8.6149
       207        2.0000           -0.3071604              -8.3583
       208        2.0000           -0.2811333              -7.6500
       209        2.0000           -0.2631539              -7.1608
       210        1.7083           -0.2357907              -6.4162 (HOMO)
       211        0.2367           -0.2322033              -6.3186 (LUMO)
       212        0.0550           -0.2307239              -6.2783
       213                         -0.2044273              -5.5627
       214                         -0.1992706              -5.4224
       215                         -0.1986624              -5.4059
       ...                                ...                  ...
       381                          1.2119574              32.9790
      -------------------------------------------------------------
                  HL-Gap            0.0035874 Eh            0.0976 eV
             Fermi-level           -0.2341114 Eh           -6.3705 eV

 SCC (total)                   0 d,  0 h,  0 min,  1.190 sec
 SCC setup                      ...        0 min,  0.002 sec (  0.155%)
 Dispersion                     ...        0 min,  0.004 sec (  0.314%)
 classical contributions        ...        0 min,  0.000 sec (  0.024%)
 integral evaluation            ...        0 min,  0.009 sec (  0.780%)
 iterations                     ...        0 min,  1.151 sec ( 96.743%)
 molecular gradient             ...        0 min,  0.022 sec (  1.862%)
 printout                       ...        0 min,  0.001 sec (  0.119%)

         :::::::::::::::::::::::::::::::::::::::::::::::::::::
         ::                     SUMMARY                     ::
         :::::::::::::::::::::::::::::::::::::::::::::::::::::
         :: total energy            -236.499145961069 Eh    ::
         :: total w/o Gsasa/hb      -236.431804654593 Eh    ::
         :: gradient norm              0.892819356272 Eh/a0 ::
         :: HOMO-LUMO gap              0.097617963431 eV    ::
         ::.................................................::
         :: SCC energy              -240.159260349971 Eh    ::
         :: -> isotropic ES            0.909000256593 Eh    ::
         :: -> anisotropic ES          0.055298865943 Eh    ::
         :: -> anisotropic XC          0.111177132742 Eh    ::
         :: -> dispersion             -0.181317245705 Eh    ::
         :: -> Gsolv                  -0.295645875965 Eh    ::
         ::    -> Gelec               -0.228304569489 Eh    ::
         ::    -> Gsasa               -0.060301544963 Eh    ::
         ::    -> Ghb                 -0.011993199090 Eh    ::
         ::    -> Gshift               0.004953437577 Eh    ::
         :: repulsion energy           3.660114388902 Eh    ::
         :: add. restraining           0.000000000000 Eh    ::
         :: total charge              -1.999999999999 e     ::
         :::::::::::::::::::::::::::::::::::::::::::::::::::::

           -------------------------------------------------
          |                Property Printout                |
           -------------------------------------------------

    * Orbital Energies and Occupations

         #    Occupation            Energy/Eh            Energy/eV
      -------------------------------------------------------------
         1        2.0000           -0.6904000             -18.7867
       ...           ...                  ...                  ...
       198        2.0000           -0.3451669              -9.3925
       199        2.0000           -0.3390466              -9.2259
       200        2.0000           -0.3385994              -9.2138
       201        2.0000           -0.3376358              -9.1875
       202        2.0000           -0.3351580              -9.1201
       203        2.0000           -0.3291221              -8.9559
       204        2.0000           -0.3250843              -8.8460
       205        2.0000           -0.3197728              -8.7015
       206        2.0000           -0.3165916              -8.6149
       207        2.0000           -0.3071604              -8.3583
       208        2.0000           -0.2811333              -7.6500
       209        2.0000           -0.2631539              -7.1608
       210        1.7083           -0.2357907              -6.4162 (HOMO)
       211        0.2367           -0.2322033              -6.3186 (LUMO)
       212        0.0550           -0.2307239              -6.2783
       213                         -0.2044273              -5.5627
       214                         -0.1992706              -5.4224
       215                         -0.1986624              -5.4059
       216                         -0.1914782              -5.2104
       217                         -0.1903527              -5.1798
       218                         -0.1861064              -5.0642
       219                         -0.1842034              -5.0124
       220                         -0.1825928              -4.9686
       221                         -0.1676962              -4.5632
       ...                                ...                  ...
       381                          1.2119574              32.9790
      -------------------------------------------------------------
                  HL-Gap            0.0035874 Eh            0.0976 eV
             Fermi-level           -0.2341114 Eh           -6.3705 eV

     #   Z          covCN         q      C6AA      α(0)
     1   7 N        2.632    -0.363    29.355     8.047
     2   6 C        3.794     0.031    20.056     6.377
     3   6 C        2.757     0.268    22.481     7.764
     4   8 O        0.859    -0.485    23.462     6.494
     5   6 C        3.857    -0.014    20.789     6.484
     6   6 C        3.764    -0.115    22.751     6.799
     7   6 C        3.766    -0.121    22.857     6.814
     8   7 N        2.690    -0.167    24.623     7.370
     9   6 C        3.796     0.020    20.244     6.407
    10   6 C        2.753     0.266    22.508     7.769
    11   8 O        0.858    -0.501    23.798     6.541
    12   6 C        3.804    -0.075    21.937     6.668
    13   6 C        3.806    -0.098    22.365     6.732
    14   6 C        2.742     0.282    22.230     7.720
    15   8 O        0.859    -0.511    24.027     6.572
    16   7 N        2.639    -0.275    27.104     7.732
    17   7 N        2.689    -0.161    24.478     7.348
    18   6 C        3.800     0.027    20.118     6.386
    19   6 C        2.758     0.266    22.510     7.769
    20   8 O        0.859    -0.501    23.806     6.542
    21   6 C        3.814    -0.061    21.660     6.624
    22   6 C        3.089     0.026    27.330     8.569
    23   7 N        1.988    -0.412    31.632     8.341
    24   6 C        3.056    -0.046    29.089     8.845
    25   6 C        2.107    -0.135    34.645     9.511
    26   7 N        2.837    -0.132    23.851     7.253
    27   7 N        2.693    -0.153    24.306     7.322
    28   6 C        3.799     0.026    20.142     6.390
    29   6 C        2.755     0.262    22.584     7.782
    30   8 O        0.858    -0.464    22.993     6.429
    31   6 C        3.812    -0.074    21.900     6.661
    32   6 C        2.960     0.000    28.022     8.683
    33   6 C        2.925    -0.042    29.043     8.838
    34   6 C        2.925    -0.046    29.130     8.851
    35   6 C        2.917    -0.077    29.936     8.972
    36   6 C        2.916    -0.066    29.643     8.928
    37   6 C        2.846     0.139    24.973     8.190
    38   8 O        1.661    -0.439    21.628     6.278
    39   7 N        2.689    -0.174    24.765     7.391
    40   6 C        3.792     0.017    20.295     6.416
    41   6 C        2.764     0.163    24.467     8.101
    42   8 O        0.856    -0.418    22.047     6.295
    43   6 C        3.682     0.072    19.583     6.337
    44   8 O        1.654    -0.461    22.075     6.343
    45   7 N        2.638    -0.350    29.015     8.000
    46   6 C        3.800     0.053    19.692     6.318
    47   6 C        2.758     0.254    22.730     7.807
    48   8 O        0.858    -0.473    23.197     6.457
    49   6 C        3.801     0.016    20.301     6.415
    50  16 S        1.900    -0.312   154.615    20.928
    51   7 N        2.754    -0.116    23.519     7.203
    52   6 C        3.821     0.022    20.193     6.395
    53   6 C        2.750     0.271    22.416     7.753
    54   8 O        0.858    -0.492    23.599     6.513
    55   6 C        3.835    -0.064    21.701     6.628
    56   6 C        3.835    -0.061    21.653     6.620
    57   6 C        3.762     0.003    20.566     6.465
    58   7 N        2.687    -0.168    24.643     7.373
    59   6 C        3.795     0.034    20.011     6.370
    60   6 C        2.761     0.267    22.497     7.767
    61   8 O        0.858    -0.508    23.959     6.563
    62   6 C        3.816    -0.055    21.545     6.606
    63   6 C        3.808    -0.093    22.264     6.717
    64   6 C        2.689     0.364    20.833     7.470
    65   8 O        0.857    -0.636    27.032     6.971
    66   8 O        0.856    -0.651    27.410     7.019
    67   7 N        2.759    -0.083    22.858     7.101
    68   6 C        3.825     0.038    19.919     6.351
    69   6 C        2.766     0.125    25.237     8.227
    70   8 O        0.856    -0.414    21.966     6.284
    71   6 C        3.844    -0.054    21.516     6.598
    72   6 C        3.844    -0.063    21.674     6.622
    73   6 C        3.769    -0.003    20.665     6.478
    74   1 H        0.980     0.079     1.979     2.198
    75   1 H        0.980     0.011     2.860     2.643
    76   1 H        0.980     0.030     2.580     2.510
    77   1 H        0.980    -0.008     3.191     2.791
    78   1 H        0.980     0.006     2.940     2.679
    79   1 H        0.980     0.014     2.819     2.624
    80   1 H        0.980     0.007     2.929     2.675
    81   1 H        0.980     0.007     2.923     2.672
    82   1 H        0.980     0.004     2.984     2.699
    83   1 H        0.860     0.146     1.426     1.871
    84   1 H        0.860     0.168     1.286     1.776
    85   1 H        0.927     0.008     2.924     2.674
    86   1 H        0.927     0.042     2.417     2.431
    87   1 H        0.927     0.039     2.456     2.451
    88   1 H        0.927     0.031     2.569     2.507
    89   1 H        0.927     0.049     2.332     2.388
    90   1 H        0.927     0.040     2.442     2.444
    91   1 H        0.927     0.049     2.337     2.391
    92   1 H        0.927     0.060     2.193     2.316
    93   1 H        0.861     0.201     1.100     1.643
    94   1 H        0.927     0.082     1.954     2.186
    95   1 H        0.927     0.060     2.200     2.320
    96   1 H        0.927     0.057     2.231     2.335
    97   1 H        0.927     0.071     2.073     2.252
    98   1 H        0.927     0.084     1.941     2.179
    99   1 H        0.861     0.219     1.014     1.577
   100   1 H        0.861     0.234     0.949     1.526
   101   1 H        0.861     0.212     1.048     1.603
   102   1 H        0.926     0.070     2.082     2.256
   103   1 H        0.927     0.050     2.326     2.385
   104   1 H        0.927     0.032     2.552     2.498
   105   1 H        0.929    -0.042     3.891     3.084
   106   1 H        0.861     0.207     1.070     1.621
   107   1 H        0.927     0.080     1.980     2.200
   108   1 H        0.927     0.066     2.133     2.284
   109   1 H        0.927     0.061     2.192     2.315
   110   1 H        0.929     0.041     2.440     2.443
   111   1 H        0.929     0.056     2.248     2.344
   112   1 H        0.929     0.045     2.389     2.417
   113   1 H        0.929     0.065     2.136     2.285
   114   1 H        0.807     0.331     0.635     1.251
   115   1 H        0.861     0.204     1.087     1.633
   116   1 H        0.927     0.075     2.027     2.226
   117   1 H        0.929     0.039     2.459     2.452
   118   1 H        0.927     0.040     2.451     2.448
   119   1 H        0.927     0.071     2.071     2.250
   120   1 H        0.804     0.321     0.662     1.278
   121   1 H        0.860     0.145     1.435     1.876
   122   1 H        0.860     0.166     1.299     1.785
   123   1 H        0.927     0.003     3.002     2.709
   124   1 H        0.927     0.045     2.385     2.415
   125   1 H        0.927     0.064     2.153     2.295
   126   1 H        0.921     0.189     1.155     1.681
   127   1 H        0.927     0.084     1.939     2.177
   128   1 H        0.927     0.063     2.169     2.303
   129   1 H        0.927     0.057     2.231     2.336
   130   1 H        0.927     0.063     2.168     2.302
   131   1 H        0.927     0.054     2.272     2.357
   132   1 H        0.927     0.064     2.147     2.292
   133   1 H        0.927     0.054     2.267     2.355
   134   1 H        0.861     0.201     1.100     1.643
   135   1 H        0.927     0.055     2.259     2.350
   136   1 H        0.927     0.039     2.459     2.452
   137   1 H        0.927     0.059     2.213     2.326
   138   1 H        0.927     0.030     2.581     2.512
   139   1 H        0.927     0.037     2.485     2.465
   140   1 H        0.927     0.064     2.150     2.293
   141   1 H        0.929     0.091     1.867     2.137
   142   1 H        0.927     0.062     2.171     2.304
   143   1 H        0.927     0.052     2.298     2.371
   144   1 H        0.926     0.064     2.157     2.297
   145   1 H        0.926     0.061     2.187     2.313
   146   1 H        0.927     0.058     2.217     2.328
   147   1 H        0.927     0.065     2.137     2.286
   148   1 H        0.981     0.015     2.805     2.617
   149   1 H        0.980    -0.013     3.290     2.834
   150   1 H        0.980    -0.032     3.668     2.993
   151   1 H        0.980     0.014     2.820     2.624
   152   1 H        0.980    -0.006     3.162     2.779
   153   1 H        0.980    -0.013     3.286     2.832
   154   1 H        0.980    -0.007     3.175     2.784
   155   1 H        0.980    -0.008     3.187     2.790
   156   1 H        0.980    -0.004     3.114     2.757
   157   1 H        0.858     0.121     1.616     1.991

 Mol. C6AA /au·bohr⁶  :     234555.600055
 Mol. C8AA /au·bohr⁸  :    5235617.643005
 Mol. α(0) /au        :        731.699438


Wiberg/Mayer (AO) data.
largest (>0.10) Wiberg bond orders for each atom

 ---------------------------------------------------------------------------
     #   Z sym  total        # sym  WBO       # sym  WBO       # sym  WBO
 ---------------------------------------------------------------------------
     1   7 N    2.988 --     2 C    1.011    83 H    0.964    84 H    0.949
     2   6 C    3.988 --     1 N    1.011    85 H    0.962     5 C    0.960
                             3 C    0.947
     3   6 C    3.945 --     4 O    1.642     8 N    1.291     2 C    0.947
     4   8 O    1.951 --     3 C    1.642     8 N    0.197
     5   6 C    3.993 --     7 C    1.010     6 C    1.009    86 H    0.970
                             2 C    0.960
     6   6 C    3.996 --     5 C    1.009    88 H    0.987    87 H    0.985
                            89 H    0.985
     7   6 C    3.995 --     5 C    1.010    90 H    0.985    91 H    0.983
                            92 H    0.977
     8   7 N    3.470 --     3 C    1.291     9 C    0.983    93 H    0.927
                             4 O    0.197
     9   6 C    3.968 --     8 N    0.983    12 C    0.968    94 H    0.952
                            10 C    0.940
    10   6 C    3.949 --    11 O    1.612    17 N    1.319     9 C    0.940
    11   8 O    1.947 --    10 C    1.612    17 N    0.200
    12   6 C    3.992 --    13 C    1.000    96 H    0.976    95 H    0.971
                             9 C    0.968
    13   6 C    3.992 --    12 C    1.000    14 C    0.970    97 H    0.965
                            98 H    0.953
    14   6 C    3.948 --    15 O    1.626    16 N    1.323    13 C    0.970
    15   8 O    1.924 --    14 C    1.626    16 N    0.198
    16   7 N    3.410 --    14 C    1.323   100 H    0.924    99 H    0.922
                            15 O    0.198
    17   7 N    3.490 --    10 C    1.319    18 C    0.977   101 H    0.924
                            11 O    0.200
    18   6 C    3.961 --    17 N    0.977   102 H    0.954    21 C    0.949
                            19 C    0.947
    19   6 C    3.950 --    20 O    1.610    27 N    1.315    18 C    0.947
    20   8 O    1.919 --    19 C    1.610    27 N    0.195
    21   6 C    3.985 --    22 C    1.000   104 H    0.973   103 H    0.970
                            18 C    0.949
    22   6 C    3.943 --    24 C    1.563    23 N    1.249    21 C    1.000
    23   7 N    2.937 --    25 C    1.506    22 C    1.249
    24   6 C    3.911 --    22 C    1.563    26 N    1.152   105 H    0.971
                            25 C    0.115
    25   6 C    2.940 --    23 N    1.506    26 N    1.262    24 C    0.115
    26   7 N    3.507 --    25 C    1.262    24 C    1.152   157 H    0.949
    27   7 N    3.490 --    19 C    1.315    28 C    0.982   106 H    0.926
                            20 O    0.195
    28   6 C    3.962 --    27 N    0.982   107 H    0.955    31 C    0.954
                            29 C    0.937
    29   6 C    3.950 --    30 O    1.663    39 N    1.280    28 C    0.937
    30   8 O    1.981 --    29 C    1.663    39 N    0.200
    31   6 C    3.988 --    32 C    1.004   109 H    0.973   108 H    0.969
                            28 C    0.954
    32   6 C    3.986 --    33 C    1.415    34 C    1.407    31 C    1.004
    33   6 C    3.993 --    35 C    1.444    32 C    1.415   110 H    0.972
                            36 C    0.108
    34   6 C    3.991 --    36 C    1.452    32 C    1.407   111 H    0.972
                            35 C    0.109
    35   6 C    3.990 --    33 C    1.444    37 C    1.382   112 H    0.967
                            34 C    0.109
    36   6 C    3.988 --    34 C    1.452    37 C    1.375   113 H    0.970
                            33 C    0.108
    37   6 C    3.936 --    35 C    1.382    36 C    1.375    38 O    1.048
    38   8 O    2.075 --    37 C    1.048   114 H    0.870
    39   7 N    3.444 --    29 C    1.280    40 C    0.959   115 H    0.920
                            30 O    0.200
    40   6 C    3.960 --    43 C    0.984    41 C    0.960    39 N    0.959
                           116 H    0.952
    41   6 C    3.708 --    42 O    1.745    40 C    0.960   117 H    0.954
    42   8 O    1.858 --    41 C    1.745
    43   6 C    3.960 --    44 O    1.003    40 C    0.984   118 H    0.972
                           119 H    0.970
    44   8 O    1.943 --    43 C    1.003   120 H    0.876
    45   7 N    2.999 --    46 C    1.021   121 H    0.964   122 H    0.949
    46   6 C    3.991 --    45 N    1.021    49 C    0.984   123 H    0.958
                            47 C    0.931
    47   6 C    3.951 --    48 O    1.651    51 N    1.274    46 C    0.931
    48   8 O    1.976 --    47 C    1.651    51 N    0.199
    49   6 C    3.971 --    46 C    0.984   124 H    0.979    50 S    0.977
                           125 H    0.971
    50  16 S    1.998 --    49 C    0.977   126 H    0.945
    51   7 N    3.495 --    47 C    1.274    52 C    0.969    57 C    0.962
                            48 O    0.199
    52   6 C    3.964 --    55 C    0.979    51 N    0.969   127 H    0.954
                            53 C    0.933
    53   6 C    3.949 --    54 O    1.634    58 N    1.311    52 C    0.933
    54   8 O    1.946 --    53 C    1.634    58 N    0.200
    55   6 C    3.992 --    56 C    1.006    52 C    0.979   128 H    0.976
                           129 H    0.976
    56   6 C    3.994 --    55 C    1.006    57 C    1.006   131 H    0.978
                           130 H    0.975
    57   6 C    3.964 --    56 C    1.006   133 H    0.970   132 H    0.965
                            51 N    0.962
    58   7 N    3.478 --    53 C    1.311    59 C    0.972   134 H    0.918
                            54 O    0.200
    59   6 C    3.968 --    62 C    0.979    58 N    0.972   135 H    0.954
                            60 C    0.941
    60   6 C    3.952 --    61 O    1.617    67 N    1.297    59 C    0.941
    61   8 O    1.933 --    60 C    1.617    67 N    0.195
    62   6 C    3.989 --    63 C    1.004    59 C    0.979   136 H    0.976
                           137 H    0.966
    63   6 C    3.990 --    62 C    1.004   138 H    0.973   139 H    0.965
                            64 C    0.939
    64   6 C    3.940 --    65 O    1.506    66 O    1.471    63 C    0.939
    65   8 O    1.793 --    64 C    1.506    66 O    0.216
    66   8 O    1.785 --    64 C    1.471    65 O    0.216
    67   7 N    3.515 --    60 C    1.297    68 C    0.968    73 C    0.967
                            61 O    0.195
    68   6 C    3.971 --    69 C    0.977    67 N    0.968    71 C    0.962
                           140 H    0.950
    69   6 C    3.810 --    70 O    1.827    68 C    0.977   141 H    0.846
    70   8 O    1.958 --    69 C    1.827
    71   6 C    3.988 --    72 C    1.011   143 H    0.974   142 H    0.972
                            68 C    0.962
    72   6 C    3.994 --    71 C    1.011    73 C    1.006   145 H    0.977
                           144 H    0.973
    73   6 C    3.965 --    72 C    1.006   146 H    0.971    67 N    0.967
                           147 H    0.967
    74   1 H    0.994 --   148 H    0.882
    75   1 H    1.000 --   149 H    0.990
    76   1 H    0.999 --   150 H    0.918
    77   1 H    1.000 --   151 H    0.911
    78   1 H    1.000 --   152 H    0.999
    79   1 H    1.000 --   153 H    0.993
    80   1 H    1.000 --   154 H    0.993
    81   1 H    1.000 --   155 H    0.998
    82   1 H    1.000 --   156 H    0.993
    83   1 H    0.978 --     1 N    0.964
    84   1 H    0.971 --     1 N    0.949
    85   1 H    1.000 --     2 C    0.962
    86   1 H    0.998 --     5 C    0.970
    87   1 H    0.998 --     6 C    0.985
    88   1 H    0.999 --     6 C    0.987
    89   1 H    0.997 --     6 C    0.985
    90   1 H    0.998 --     7 C    0.985
    91   1 H    0.997 --     7 C    0.983
    92   1 H    0.996 --     7 C    0.977
    93   1 H    0.960 --     8 N    0.927
    94   1 H    0.993 --     9 C    0.952
    95   1 H    0.996 --    12 C    0.971
    96   1 H    0.997 --    12 C    0.976
    97   1 H    0.995 --    13 C    0.965
    98   1 H    0.993 --    13 C    0.953
    99   1 H    0.952 --    16 N    0.922
   100   1 H    0.945 --    16 N    0.924
   101   1 H    0.955 --    17 N    0.924
   102   1 H    0.995 --    18 C    0.954
   103   1 H    0.996 --    21 C    0.970
   104   1 H    0.998 --    21 C    0.973
   105   1 H    0.998 --    24 C    0.971
   106   1 H    0.957 --    27 N    0.926
   107   1 H    0.994 --    28 C    0.955
   108   1 H    0.995 --    31 C    0.969
   109   1 H    0.996 --    31 C    0.973
   110   1 H    0.998 --    33 C    0.972
   111   1 H    0.996 --    34 C    0.972
   112   1 H    0.998 --    35 C    0.967
   113   1 H    0.995 --    36 C    0.970
   114   1 H    0.890 --    38 O    0.870
   115   1 H    0.958 --    39 N    0.920
   116   1 H    0.991 --    40 C    0.952
   117   1 H    0.998 --    41 C    0.954
   118   1 H    0.998 --    43 C    0.972
   119   1 H    0.994 --    43 C    0.970
   120   1 H    0.897 --    44 O    0.876
   121   1 H    0.979 --    45 N    0.964
   122   1 H    0.972 --    45 N    0.949
   123   1 H    1.000 --    46 C    0.958
   124   1 H    0.998 --    49 C    0.979
   125   1 H    0.996 --    49 C    0.971
   126   1 H    0.964 --    50 S    0.945
   127   1 H    0.993 --    52 C    0.954
   128   1 H    0.996 --    55 C    0.976
   129   1 H    0.996 --    55 C    0.976
   130   1 H    0.996 --    56 C    0.975
   131   1 H    0.997 --    56 C    0.978
   132   1 H    0.996 --    57 C    0.965
   133   1 H    0.997 --    57 C    0.970
   134   1 H    0.959 --    58 N    0.918
   135   1 H    0.997 --    59 C    0.954
   136   1 H    0.998 --    62 C    0.976
   137   1 H    0.996 --    62 C    0.966
   138   1 H    0.999 --    63 C    0.973
   139   1 H    0.998 --    63 C    0.965
   140   1 H    0.995 --    68 C    0.950
   141   1 H    0.992 --    69 C    0.846
   142   1 H    0.996 --    71 C    0.972
   143   1 H    0.997 --    71 C    0.974
   144   1 H    0.995 --    72 C    0.973
   145   1 H    0.996 --    72 C    0.977
   146   1 H    0.997 --    73 C    0.971
   147   1 H    0.996 --    73 C    0.967
   148   1 H    1.000 --    74 H    0.882
   149   1 H    1.000 --    75 H    0.990
   150   1 H    0.999 --    76 H    0.918
   151   1 H    1.000 --    77 H    0.911
   152   1 H    1.000 --    78 H    0.999
   153   1 H    1.000 --    79 H    0.993
   154   1 H    1.000 --    80 H    0.993
   155   1 H    1.000 --    81 H    0.998
   156   1 H    1.000 --    82 H    0.993
   157   1 H    0.985 --    26 N    0.949
 ---------------------------------------------------------------------------

Topologies differ in total number of bonds
Writing topology from bond orders to xtbtopo.mol

molecular dipole:
                 x           y           z       tot (Debye)
 q only:      115.126     -58.227       9.036
   full:      115.269     -57.450       9.639     328.274
molecular quadrupole (traceless):
                xx          xy          yy          xz          yz          zz
 q only:    -5670.876    5003.889    1687.516    -760.002     455.590    3983.360
  q+dip:    -5685.390    4947.518    1722.459    -802.176     470.566    3962.930
   full:    -5686.647    4945.217    1723.493    -802.538     469.205    3963.154


           -------------------------------------------------
          | TOTAL ENERGY             -236.499145961069 Eh   |
          | GRADIENT NORM               0.892819356272 Eh/α |
          | HOMO-LUMO GAP               0.097617963431 eV   |
           -------------------------------------------------
########################################################################
[WARNING] Runtime exception occurred
-3- restart_readRestart: Dimension missmatch in restart file.
-2- restart_readRestart: Multiplicity missmatch in restart file.
-1- restart_readRestart: Number of electron missmatch in restart file.
########################################################################

------------------------------------------------------------------------
 * finished run on 2025/05/01 at 18:01:08.414     
------------------------------------------------------------------------
 total:
 * wall-time:     0 d,  0 h,  0 min,  1.203 sec
 *  cpu-time:     0 d,  0 h,  0 min, 35.096 sec
 * ratio c/w:    29.167 speedup
 SCF:
 * wall-time:     0 d,  0 h,  0 min,  1.190 sec
 *  cpu-time:     0 d,  0 h,  0 min, 34.785 sec
 * ratio c/w:    29.221 speedup

