      -----------------------------------------------------------      
     |                   =====================                   |     
     |                           x T B                           |     
     |                   =====================                   |     
     |                         S. Grimme                         |     
     |          Mulliken Center for Theoretical Chemistry        |     
     |                    University of Bonn                     |     
      -----------------------------------------------------------      

   * xtb version 6.7.1 (edcfbbe) compiled by 'conda@afd1a870197c' on 2025-04-11

   xtb is free software: you can redistribute it and/or modify it under
   the terms of the GNU Lesser General Public License as published by
   the Free Software Foundation, either version 3 of the License, or
   (at your option) any later version.
   
   xtb is distributed in the hope that it will be useful,
   but WITHOUT ANY WARRANTY; without even the implied warranty of
   MERCHANTABILITY or FITNESS FOR A PARTICULAR PURPOSE.  See the
   GNU Lesser General Public License for more details.
   
   Cite this work as:
   * C. Bannwarth, E. Caldeweyher, S. Ehlert, A. Hansen, P. Pracht,
     J. Seibert, S. Spicher, S. Grimme, WIREs Comput. Mol. Sci., 2020, 11,
     e01493. DOI: 10.1002/wcms.1493
   
   for GFN2-xTB:
   * C. Bannwarth, S. Ehlert and S. Grimme., J. Chem. Theory Comput., 2019,
     15, 1652-1671. DOI: 10.1021/acs.jctc.8b01176
   for GFN1-xTB:
   * S. Grimme, C. Bannwarth, P. Shushkov, J. Chem. Theory Comput., 2017,
     13, 1989-2009. DOI: 10.1021/acs.jctc.7b00118
   for GFN0-xTB:
   * P. Pracht, E. Caldeweyher, S. Ehlert, S. Grimme, ChemRxiv, 2019, preprint.
     DOI: 10.26434/chemrxiv.8326202.v1
   for GFN-FF:
   * S. Spicher and S. Grimme, Angew. Chem. Int. Ed., 2020, 59, 15665-15673.
     DOI: 10.1002/anie.202004239
   
   for ALPB and GBSA implicit solvation:
   * S. Ehlert, M. Stahn, S. Spicher, S. Grimme, J. Chem. Theory Comput.,
     2021, 17, 4250-4261. DOI: 10.1021/acs.jctc.1c00471
   
   for ddCOSMO and CPCM-X implicit solvation:
   * M. Stahn, S. Ehlert, S. Grimme, J. Phys. Chem. A,
     2023, XX, XXXX-XXXX. DOI: 10.1021/acs.jpca.3c04382
   
   for DFT-D4:
   * E. Caldeweyher, C. Bannwarth and S. Grimme, J. Chem. Phys., 2017,
     147, 034112. DOI: 10.1063/1.4993215
   * E. Caldeweyher, S. Ehlert, A. Hansen, H. Neugebauer, S. Spicher,
     C. Bannwarth and S. Grimme, J. Chem. Phys., 2019, 150, 154122.
     DOI: 10.1063/1.5090222
   * E. Caldeweyher, J.-M. Mewes, S. Ehlert and S. Grimme, Phys. Chem. Chem. Phys.
     2020, 22, 8499-8512. DOI: 10.1039/D0CP00502A
   
   for sTDA-xTB:
   * S. Grimme and C. Bannwarth, J. Chem. Phys., 2016, 145, 054103.
     DOI: 10.1063/1.4959605
   
   in the mass-spec context:
   * V. Asgeirsson, C. Bauer and S. Grimme, Chem. Sci., 2017, 8, 4879.
     DOI: 10.1039/c7sc00601b
   * J. Koopman and S. Grimme, ACS Omega 2019, 4, 12, 15120-15133.
     DOI: 10.1021/acsomega.9b02011
   
   for metadynamics refer to:
   * S. Grimme, J. Chem. Theory Comput., 2019, 155, 2847-2862
     DOI: 10.1021/acs.jctc.9b00143
   
   for SPH calculations refer to:
   * S. Spicher and S. Grimme, J. Chem. Theory Comput., 2021, 17, 1701-1714
     DOI: 10.1021/acs.jctc.0c01306
   
   for ONIOM refer to:
   * C. Plett, A. Katbashev, S. Ehlert, S. Grimme, M. Bursch,
     Phys. Chem. Chem. Phys., 2023, 25, 17860-17868. DOI: 10.1039/D3CP02178E
   
   for DIPRO refer to:
   * J. Kohn, N. Gildemeister, S. Grimme, D. Fazzi, A. Hansen,
     J. Chem. Phys., 2023, just accepted.
   
   for PTB refer to:
   * S. Grimme, M. Mueller, A. Hansen, J. Chem. Phys., 2023, 158, 124111.
     DOI: 10.1063/5.0137838
   
   with help from (in alphabetical order)
   P. Atkinson, C. Bannwarth, F. Bohle, G. Brandenburg, E. Caldeweyher
   M. Checinski, S. Dohm, S. Ehlert, S. Ehrlich, I. Gerasimov, C. Hölzer
   A. Katbashev, J. Kohn, J. Koopman, C. Lavigne, S. Lehtola, F. März, M. Müller,
   F. Musil, H. Neugebauer, J. Pisarek, C. Plett, P. Pracht, F. Pultar,
   J. Seibert, P. Shushkov, S. Spicher, M. Stahn, M. Steiner, T. Strunk,
   J. Stückrath, T. Rose, and J. Unsleber
   
 * started run on 2025/05/01 at 18:01:38.491     
   ID    Z sym.   atoms
    1    7 N      1, 12, 19, 26, 32, 35, 36, 44, 51, 53, 54
    2    6 C      2, 3, 5-11, 13, 14, 16-18, 20, 21, 23-25, 27, 28, 30, 31,
                  33, 34, 37, 38, 40-43, 45, 46, 48-50, 52
    3    8 O      4, 15, 22, 29, 39, 47
    4    1 H      55-113

           -------------------------------------------------
          |                Calculation Setup                |
           -------------------------------------------------

          program call               : xtb /tmp/tmpsa_r652v/HIE/input.xyz --alpb ether --chrg 2 --input /tmp/tmpsa_r652v/HIE/constraints.inp --gfn 2
          hostname                   : fedora
          coordinate file            : /tmp/tmpsa_r652v/HIE/input.xyz
          omp threads                :                    32


molecular fragmentation (1/2 indicates fragments):
111111111112222222222222222222222222222222222222222222111111111112222222
22222222222222222222222222222222222222222
# atoms in fragment 1/2:    22    91
 fragment masses (1/2) :      149.19      604.75
CMA distance (Bohr)    :  13.157
constraining FC (au)   :  0.0500
########################################################################
[WARNING] Please study the warnings concerning your input carefully
-1- readin_getIntValue: could not parse 'S'
########################################################################

           -------------------------------------------------
          |                 G F N 2 - x T B                 |
           -------------------------------------------------

        Reference                      10.1021/acs.jctc.8b01176
      * Hamiltonian:
        H0-scaling (s, p, d)           1.850000    2.230000    2.230000
        zeta-weighting                 0.500000
      * Dispersion:
        s8                             2.700000
        a1                             0.520000
        a2                             5.000000
        s9                             5.000000
      * Repulsion:
        kExp                           1.500000    1.000000
        rExp                           1.000000
      * Coulomb:
        alpha                          2.000000
        third order                    shell-resolved
        anisotropic                    true
        a3                             3.000000
        a5                             4.000000
        cn-shift                       1.200000
        cn-exp                         4.000000
        max-rad                        5.000000

      * Solvation model:               ALPB
        Solvent                        ether
        Parameter file                 internal GFN2-xTB/ALPB
        Dielectric constant                4.3300E+00
        Reference state                gsolv [1 M gas/solution]
        Free energy shift                  4.9534E-03 Eh       3.1083E+00 kcal/mol
        Temperature                        2.9815E+02 K
        Density                            7.1300E-01 kg/L
        Solvent mass                       7.4120E+01 g/mol
        Interaction kernel             P16
        Born radius scaling (c1)           1.5847E+00
        Born radii integrator          GBOBC
        Born offset                        0.0000E+00 a0       0.0000E+00 AA
        H-bond correction              true
        Ion screening                  false
        Surface tension                    1.0000E-05 Eh       1.5569E+01 dyn/cm
        Grid points                               230 per atom

          ...................................................
          :                      SETUP                      :
          :.................................................:
          :  # basis functions                 275          :
          :  # atomic orbitals                 275          :
          :  # shells                          167          :
          :  # electrons                       296          :
          :  max. iterations                   250          :
          :  Hamiltonian                  GFN2-xTB          :
          :  restarted?                      false          :
          :  GBSA solvation                   true          :
          :  PC potential                    false          :
          :  electronic temp.          300.0000000     K    :
          :  accuracy                    1.0000000          :
          :  -> integral cutoff          0.2500000E+02      :
          :  -> integral neglect         0.1000000E-07      :
          :  -> SCF convergence          0.1000000E-05 Eh   :
          :  -> wf. convergence          0.1000000E-03 e    :
          :  Broyden damping             0.4000000          :
          :  net charge                          2          :
          :  unpaired electrons                  0          :
          ...................................................

 iter      E             dE          RMSdq      gap      omega  full diag
   1   -166.5085394 -0.166509E+03  0.415E+00    0.05       0.0  T
   2   -166.8655495 -0.357010E+00  0.298E+00    0.32       1.0  T
   3   -166.7168529  0.148697E+00  0.250E+00    0.32       1.0  T
   4   -167.2804619 -0.563609E+00  0.157E+00    0.68       1.0  T
   5   -166.7940834  0.486379E+00  0.212E+00    0.73       1.0  T
   6   -167.2918566 -0.497773E+00  0.110E+00    0.53       1.0  T
   7   -167.1983167  0.935399E-01  0.124E+00    0.04       1.0  T
   8   -167.4056986 -0.207382E+00  0.688E-01    0.04       1.0  T
   9   -167.1718553  0.233843E+00  0.129E+00    0.05       1.0  T
  10   -167.1852196 -0.133643E-01  0.124E+00    0.02       1.0  T
  11   -167.1977223 -0.125028E-01  0.118E+00    0.01       1.0  T
  12   -167.2294016 -0.316792E-01  0.111E+00    0.05       1.0  T
  13   -167.2353059 -0.590435E-02  0.104E+00    0.02       1.0  T
  14   -167.4404513 -0.205145E+00  0.386E-01    0.05       1.0  T
  15   -167.1213767  0.319075E+00  0.129E+00    0.11       1.0  T
  16   -167.4312887 -0.309912E+00  0.437E-01    0.08       1.0  T
  17   -167.4390633 -0.777459E-02  0.365E-01    0.06       1.0  T
  18   -167.4220841  0.169792E-01  0.456E-01    0.11       1.0  T
  19   -167.4454485 -0.233644E-01  0.306E-01    0.06       1.0  T
  20   -167.4471551 -0.170656E-02  0.292E-01    0.07       1.0  T
  21   -167.4541674 -0.701235E-02  0.226E-01    0.07       1.0  T
  22   -167.4541654  0.208075E-05  0.227E-01    0.07       1.0  T
  23   -167.4615771 -0.741170E-02  0.124E-01    0.07       1.0  T
  24   -167.4635942 -0.201714E-02  0.704E-02    0.06       1.0  T
  25   -167.4645560 -0.961784E-03  0.133E-02    0.05       1.0  T
  26   -167.4645243  0.317091E-04  0.167E-02    0.05       1.0  T
  27   -167.4645648 -0.405436E-04  0.105E-02    0.05       1.0  T
  28   -167.4645809 -0.160683E-04  0.462E-03    0.05       2.0  T
  29   -167.4645811 -0.218650E-06  0.417E-03    0.05       2.3  T
  30   -167.4645839 -0.283025E-05  0.154E-03    0.05       6.1  T
  31   -167.4645830  0.968240E-06  0.262E-03    0.05       3.6  T
  32   -167.4645838 -0.802832E-06  0.167E-03    0.05       5.6  T
  33   -167.4645837  0.309972E-07  0.161E-03    0.05       5.8  T
  34   -167.4645840 -0.278039E-06  0.108E-03    0.05       8.7  T
  35   -167.4645842 -0.212685E-06  0.347E-04    0.05      27.1  T
  36   -167.4645842 -0.147053E-07  0.225E-04    0.05      41.9  T

   *** convergence criteria satisfied after 36 iterations ***

         #    Occupation            Energy/Eh            Energy/eV
      -------------------------------------------------------------
         1        2.0000           -0.7743545             -21.0713
       ...           ...                  ...                  ...
       142        2.0000           -0.4340596             -11.8114
       143        2.0000           -0.4326866             -11.7740
       144        1.9996           -0.4286086             -11.6630
       145        1.9876           -0.4252525             -11.5717
       146        1.9557           -0.4240273             -11.5384
       147        1.7274           -0.4221826             -11.4882
       148        1.6144           -0.4217889             -11.4775 (HOMO)
       149        0.7153           -0.4198723             -11.4253 (LUMO)
       150                         -0.3254095              -8.8548
       151                         -0.3195632              -8.6958
       152                         -0.2651058              -7.2139
       153                         -0.2611462              -7.1061
       ...                                ...                  ...
       275                          0.6582548              17.9120
      -------------------------------------------------------------
                  HL-Gap            0.0019166 Eh            0.0522 eV
             Fermi-level           -0.4204286 Eh          -11.4404 eV

 SCC (total)                   0 d,  0 h,  0 min,  0.657 sec
 SCC setup                      ...        0 min,  0.001 sec (  0.139%)
 Dispersion                     ...        0 min,  0.002 sec (  0.270%)
 classical contributions        ...        0 min,  0.000 sec (  0.012%)
 integral evaluation            ...        0 min,  0.004 sec (  0.590%)
 iterations                     ...        0 min,  0.639 sec ( 97.306%)
 molecular gradient             ...        0 min,  0.010 sec (  1.572%)
 printout                       ...        0 min,  0.001 sec (  0.109%)

         :::::::::::::::::::::::::::::::::::::::::::::::::::::
         ::                     SUMMARY                     ::
         :::::::::::::::::::::::::::::::::::::::::::::::::::::
         :: total energy            -165.119673891792 Eh    ::
         :: total w/o Gsasa/hb      -165.051766659671 Eh    ::
         :: gradient norm              0.258343170879 Eh/a0 ::
         :: HOMO-LUMO gap              0.052153615594 eV    ::
         ::.................................................::
         :: SCC energy              -167.461365864414 Eh    ::
         :: -> isotropic ES            0.453225264101 Eh    ::
         :: -> anisotropic ES         -0.009716933096 Eh    ::
         :: -> anisotropic XC          0.070931174125 Eh    ::
         :: -> dispersion             -0.114897323681 Eh    ::
         :: -> Gsolv                  -0.229411761240 Eh    ::
         ::    -> Gelec               -0.161504529120 Eh    ::
         ::    -> Gsasa               -0.054864870612 Eh    ::
         ::    -> Ghb                 -0.017995799086 Eh    ::
         ::    -> Gshift               0.004953437577 Eh    ::
         :: repulsion energy           2.341691972623 Eh    ::
         :: add. restraining           0.000000000000 Eh    ::
         :: total charge               2.000000000492 e     ::
         :::::::::::::::::::::::::::::::::::::::::::::::::::::

           -------------------------------------------------
          |                Property Printout                |
           -------------------------------------------------

    * Orbital Energies and Occupations

         #    Occupation            Energy/Eh            Energy/eV
      -------------------------------------------------------------
         1        2.0000           -0.7743545             -21.0713
       ...           ...                  ...                  ...
       136        2.0000           -0.4470944             -12.1661
       137        2.0000           -0.4464272             -12.1479
       138        2.0000           -0.4442073             -12.0875
       139        2.0000           -0.4406249             -11.9900
       140        2.0000           -0.4396766             -11.9642
       141        2.0000           -0.4368408             -11.8870
       142        2.0000           -0.4340596             -11.8114
       143        2.0000           -0.4326866             -11.7740
       144        1.9996           -0.4286086             -11.6630
       145        1.9876           -0.4252525             -11.5717
       146        1.9557           -0.4240273             -11.5384
       147        1.7274           -0.4221826             -11.4882
       148        1.6144           -0.4217889             -11.4775 (HOMO)
       149        0.7153           -0.4198723             -11.4253 (LUMO)
       150                         -0.3254095              -8.8548
       151                         -0.3195632              -8.6958
       152                         -0.2651058              -7.2139
       153                         -0.2611462              -7.1061
       154                         -0.2590104              -7.0480
       155                         -0.2573259              -7.0022
       156                         -0.2552688              -6.9462
       157                         -0.2531035              -6.8873
       158                         -0.2497496              -6.7960
       159                         -0.2463218              -6.7028
       ...                                ...                  ...
       275                          0.6582548              17.9120
      -------------------------------------------------------------
                  HL-Gap            0.0019166 Eh            0.0522 eV
             Fermi-level           -0.4204286 Eh          -11.4404 eV

     #   Z          covCN         q      C6AA      α(0)
     1   7 N        2.632    -0.324    28.330     7.905
     2   6 C        3.785     0.032    20.048     6.378
     3   6 C        2.764     0.199    23.752     7.981
     4   8 O        0.856    -0.346    20.627     6.089
     5   6 C        3.817    -0.078    21.976     6.672
     6   6 C        2.962     0.014    27.708     8.634
     7   6 C        2.923    -0.042    29.035     8.837
     8   6 C        2.923    -0.045    29.118     8.849
     9   6 C        2.915    -0.036    28.907     8.816
    10   6 C        2.915    -0.037    28.932     8.820
    11   6 C        2.915    -0.035    28.883     8.813
    12   7 N        2.635    -0.294    27.572     7.799
    13   6 C        3.790     0.024    20.182     6.398
    14   6 C        2.766     0.269    22.465     7.762
    15   8 O        0.859    -0.470    23.139     6.449
    16   6 C        3.855    -0.015    20.802     6.487
    17   6 C        3.761    -0.123    22.911     6.823
    18   6 C        3.762    -0.128    22.995     6.836
    19   7 N        2.763    -0.057    22.337     7.019
    20   6 C        3.849     0.020    20.204     6.394
    21   6 C        2.760     0.272    22.399     7.750
    22   8 O        0.859    -0.478    23.305     6.472
    23   6 C        3.853    -0.067    21.754     6.634
    24   6 C        3.855    -0.068    21.758     6.634
    25   6 C        3.777    -0.016    20.894     6.512
    26   7 N        2.698    -0.160    24.454     7.344
    27   6 C        3.805     0.026    20.128     6.387
    28   6 C        2.768     0.275    22.347     7.742
    29   8 O        0.859    -0.476    23.252     6.465
    30   6 C        3.813    -0.085    22.102     6.692
    31   6 C        3.088     0.069    26.357     8.416
    32   7 N        1.989    -0.220    26.598     7.649
    33   6 C        3.059    -0.027    28.613     8.772
    34   6 C        2.108     0.079    28.892     8.685
    35   7 N        2.837    -0.051    22.220     7.001
    36   7 N        2.690    -0.148    24.206     7.307
    37   6 C        3.801     0.015    20.319     6.418
    38   6 C        2.760     0.267    22.493     7.767
    39   8 O        0.859    -0.481    23.378     6.483
    40   6 C        3.819    -0.082    22.051     6.683
    41   6 C        3.852    -0.014    20.785     6.484
    42   6 C        3.763    -0.124    22.930     6.826
    43   6 C        3.762    -0.124    22.921     6.824
    44   7 N        2.699    -0.155    24.344     7.328
    45   6 C        3.796     0.023    20.197     6.399
    46   6 C        2.773     0.197    23.797     7.990
    47   8 O        0.856    -0.344    20.599     6.085
    48   6 C        3.811    -0.082    22.061     6.686
    49   6 C        3.806    -0.089    22.201     6.708
    50   6 C        3.744    -0.031    21.199     6.568
    51   7 N        2.700    -0.144    24.122     7.294
    52   6 C        2.737     0.235    23.079     7.865
    53   7 N        2.655    -0.259    26.713     7.676
    54   7 N        2.655    -0.269    26.956     7.711
    55   1 H        0.860     0.200     1.105     1.647
    56   1 H        0.860     0.186     1.179     1.701
    57   1 H        0.927     0.093     1.851     2.127
    58   1 H        0.929     0.079     1.989     2.205
    59   1 H        0.927     0.062     2.176     2.307
    60   1 H        0.926     0.083     1.943     2.180
    61   1 H        0.929     0.058     2.219     2.330
    62   1 H        0.929     0.048     2.340     2.392
    63   1 H        0.929     0.059     2.207     2.323
    64   1 H        0.929     0.053     2.277     2.360
    65   1 H        0.929     0.052     2.296     2.369
    66   1 H        0.860     0.207     1.072     1.622
    67   1 H        0.860     0.200     1.107     1.648
    68   1 H        0.927     0.073     2.057     2.243
    69   1 H        0.927     0.055     2.255     2.348
    70   1 H        0.927     0.051     2.308     2.376
    71   1 H        0.927     0.048     2.341     2.393
    72   1 H        0.927     0.062     2.176     2.307
    73   1 H        0.927     0.054     2.269     2.356
    74   1 H        0.927     0.062     2.172     2.305
    75   1 H        0.927     0.048     2.343     2.394
    76   1 H        0.927     0.076     2.021     2.223
    77   1 H        0.926     0.071     2.077     2.254
    78   1 H        0.927     0.063     2.167     2.302
    79   1 H        0.927     0.066     2.133     2.284
    80   1 H        0.927     0.070     2.086     2.259
    81   1 H        0.927     0.074     2.038     2.232
    82   1 H        0.927     0.078     2.000     2.211
    83   1 H        0.861     0.220     1.010     1.574
    84   1 H        0.927     0.087     1.911     2.162
    85   1 H        0.926     0.105     1.739     2.062
    86   1 H        0.927     0.096     1.821     2.110
    87   1 H        0.929     0.087     1.906     2.159
    88   1 H        0.861     0.215     1.033     1.592
    89   1 H        0.927     0.090     1.883     2.146
    90   1 H        0.927     0.062     2.180     2.309
    91   1 H        0.927     0.063     2.163     2.300
    92   1 H        0.927     0.035     2.518     2.481
    93   1 H        0.927     0.046     2.365     2.405
    94   1 H        0.927     0.043     2.412     2.429
    95   1 H        0.927     0.049     2.333     2.389
    96   1 H        0.927     0.045     2.380     2.412
    97   1 H        0.927     0.041     2.436     2.441
    98   1 H        0.927     0.044     2.391     2.418
    99   1 H        0.861     0.221     1.006     1.571
   100   1 H        0.927     0.100     1.789     2.091
   101   1 H        0.929     0.074     2.038     2.232
   102   1 H        0.927     0.078     1.998     2.211
   103   1 H        0.926     0.071     2.073     2.252
   104   1 H        0.927     0.087     1.905     2.158
   105   1 H        0.927     0.068     2.112     2.273
   106   1 H        0.927     0.086     1.921     2.167
   107   1 H        0.927     0.084     1.936     2.176
   108   1 H        0.861     0.249     0.888     1.476
   109   1 H        0.861     0.252     0.875     1.466
   110   1 H        0.861     0.252     0.876     1.466
   111   1 H        0.861     0.255     0.865     1.457
   112   1 H        0.860     0.233     0.951     1.528
   113   1 H        0.858     0.239     0.929     1.510

 Mol. C6AA /au·bohr⁶  :     116724.234493
 Mol. C8AA /au·bohr⁸  :    2634731.223614
 Mol. α(0) /au        :        517.136185


Wiberg/Mayer (AO) data.
largest (>0.10) Wiberg bond orders for each atom

 ---------------------------------------------------------------------------
     #   Z sym  total        # sym  WBO       # sym  WBO       # sym  WBO
 ---------------------------------------------------------------------------
     1   7 N    2.975 --     2 C    1.026    56 H    0.948    55 H    0.941
     2   6 C    3.952 --     1 N    1.026     3 C    0.975    57 H    0.952
                             5 C    0.919
     3   6 C    3.888 --     4 O    1.914     2 C    0.975    58 H    0.946
     4   8 O    2.046 --     3 C    1.914
     5   6 C    3.956 --     6 C    1.016    59 H    0.973    60 H    0.951
                             2 C    0.919
     6   6 C    3.943 --     8 C    1.395     7 C    1.391     5 C    1.016
     7   6 C    3.969 --     9 C    1.450     6 C    1.391    61 H    0.969
                            10 C    0.109
     8   6 C    3.971 --    10 C    1.448     6 C    1.395    62 H    0.971
                             9 C    0.108
     9   6 C    3.983 --     7 C    1.450    11 C    1.425    63 H    0.972
                             8 C    0.108
    10   6 C    3.980 --     8 C    1.448    11 C    1.424    64 H    0.973
                             7 C    0.109
    11   6 C    3.942 --     9 C    1.425    10 C    1.424    65 H    0.973
    12   7 N    2.972 --    13 C    1.034    67 H    0.942    66 H    0.928
    13   6 C    3.918 --    12 N    1.034    68 H    0.959    14 C    0.924
                            16 C    0.910
    14   6 C    3.933 --    15 O    1.611    19 N    1.310    13 C    0.924
    15   8 O    1.918 --    14 C    1.611    19 N    0.185
    16   6 C    3.924 --    17 C    1.008    18 C    1.007    69 H    0.966
                            13 C    0.910
    17   6 C    3.984 --    16 C    1.008    70 H    0.985    71 H    0.982
                            72 H    0.976
    18   6 C    3.981 --    16 C    1.007    73 H    0.984    75 H    0.977
                            74 H    0.976
    19   7 N    3.511 --    14 C    1.310    20 C    0.970    25 C    0.965
                            15 O    0.185
    20   6 C    3.957 --    23 C    0.977    19 N    0.970    76 H    0.952
                            21 C    0.935
    21   6 C    3.943 --    22 O    1.633    26 N    1.301    20 C    0.935
    22   8 O    1.935 --    21 C    1.633    26 N    0.192
    23   6 C    3.986 --    24 C    1.009    20 C    0.977    78 H    0.971
                            77 H    0.970
    24   6 C    3.989 --    23 C    1.009    25 C    1.005    80 H    0.973
                            79 H    0.973
    25   6 C    3.954 --    24 C    1.005    81 H    0.965    19 N    0.965
                            82 H    0.964
    26   7 N    3.472 --    21 C    1.301    27 C    0.972    83 H    0.922
                            22 O    0.192
    27   6 C    3.957 --    30 C    0.973    26 N    0.972    84 H    0.957
                            28 C    0.926
    28   6 C    3.951 --    29 O    1.625    36 N    1.322    27 C    0.926
    29   8 O    1.951 --    28 C    1.625    36 N    0.200
    30   6 C    3.979 --    31 C    1.020    27 C    0.973    85 H    0.951
                            86 H    0.948
    31   6 C    3.896 --    33 C    1.559    32 N    1.177    30 C    1.020
    32   7 N    3.078 --    34 C    1.716    31 C    1.177
    33   6 C    3.895 --    31 C    1.559    35 N    1.175    87 H    0.966
                            34 C    0.120
    34   6 C    3.297 --    32 N    1.716    35 N    1.340    33 C    0.120
    35   7 N    3.571 --    34 C    1.340    33 C    1.175   113 H    0.911
    36   7 N    3.496 --    28 C    1.322    37 C    0.979    88 H    0.924
                            29 O    0.200
    37   6 C    3.958 --    36 N    0.979    40 C    0.967    89 H    0.948
                            38 C    0.936
    38   6 C    3.949 --    39 O    1.641    44 N    1.296    37 C    0.936
    39   8 O    1.950 --    38 C    1.641    44 N    0.194
    40   6 C    3.984 --    41 C    0.990    91 H    0.973    90 H    0.972
                            37 C    0.967
    41   6 C    3.994 --    43 C    1.010    42 C    1.006    40 C    0.990
                            92 H    0.970
    42   6 C    3.993 --    41 C    1.006    93 H    0.986    94 H    0.986
                            95 H    0.985
    43   6 C    3.996 --    41 C    1.010    96 H    0.986    97 H    0.986
                            98 H    0.982
    44   7 N    3.478 --    38 C    1.296    45 C    0.965    99 H    0.914
                            39 O    0.194
    45   6 C    3.960 --    48 C    0.973    46 C    0.967    44 N    0.965
                           100 H    0.958
    46   6 C    3.899 --    47 O    1.910    45 C    0.967   101 H    0.950
    47   8 O    2.056 --    46 C    1.910
    48   6 C    3.987 --    49 C    1.007    45 C    0.973   103 H    0.972
                           102 H    0.970
    49   6 C    3.987 --    48 C    1.007    50 C    1.004   105 H    0.968
                           104 H    0.967
    50   6 C    3.953 --    49 C    1.004    51 N    0.975   107 H    0.963
                           106 H    0.963
    51   7 N    3.466 --    52 C    1.322    50 C    0.975   112 H    0.914
                            54 N    0.103    53 N    0.102
    52   6 C    3.977 --    51 N    1.322    53 N    1.317    54 N    1.310
    53   7 N    3.394 --    52 C    1.317   109 H    0.918   108 H    0.916
                            51 N    0.102
    54   7 N    3.383 --    52 C    1.310   110 H    0.918   111 H    0.916
                            51 N    0.103
    55   1 H    0.956 --     1 N    0.941
    56   1 H    0.963 --     1 N    0.948
    57   1 H    0.990 --     2 C    0.952
    58   1 H    0.990 --     3 C    0.946
    59   1 H    0.996 --     5 C    0.973
    60   1 H    0.988 --     5 C    0.951
    61   1 H    0.996 --     7 C    0.969
    62   1 H    0.998 --     8 C    0.971
    63   1 H    0.996 --     9 C    0.972
    64   1 H    0.996 --    10 C    0.973
    65   1 H    0.996 --    11 C    0.973
    66   1 H    0.949 --    12 N    0.928
    67   1 H    0.958 --    12 N    0.942
    68   1 H    0.993 --    13 C    0.959
    69   1 H    0.995 --    16 C    0.966
    70   1 H    0.997 --    17 C    0.985
    71   1 H    0.997 --    17 C    0.982
    72   1 H    0.987 --    17 C    0.976
    73   1 H    0.995 --    18 C    0.984
    74   1 H    0.989 --    18 C    0.976
    75   1 H    0.998 --    18 C    0.977
    76   1 H    0.992 --    20 C    0.952
    77   1 H    0.993 --    23 C    0.970
    78   1 H    0.995 --    23 C    0.971
    79   1 H    0.995 --    24 C    0.973
    80   1 H    0.995 --    24 C    0.973
    81   1 H    0.993 --    25 C    0.965
    82   1 H    0.991 --    25 C    0.964
    83   1 H    0.952 --    26 N    0.922
    84   1 H    0.992 --    27 C    0.957
    85   1 H    0.988 --    30 C    0.951
    86   1 H    0.981 --    30 C    0.948
    87   1 H    0.992 --    33 C    0.966
    88   1 H    0.954 --    36 N    0.924
    89   1 H    0.992 --    37 C    0.948
    90   1 H    0.995 --    40 C    0.972
    91   1 H    0.996 --    40 C    0.973
    92   1 H    0.999 --    41 C    0.970
    93   1 H    0.998 --    42 C    0.986
    94   1 H    0.998 --    42 C    0.986
    95   1 H    0.996 --    42 C    0.985
    96   1 H    0.998 --    43 C    0.986
    97   1 H    0.998 --    43 C    0.986
    98   1 H    0.998 --    43 C    0.982
    99   1 H    0.951 --    44 N    0.914
   100   1 H    0.990 --    45 C    0.958
   101   1 H    0.994 --    46 C    0.950
   102   1 H    0.994 --    48 C    0.970
   103   1 H    0.994 --    48 C    0.972
   104   1 H    0.992 --    49 C    0.967
   105   1 H    0.995 --    49 C    0.968
   106   1 H    0.993 --    50 C    0.963
   107   1 H    0.993 --    50 C    0.963
   108   1 H    0.938 --    53 N    0.916
   109   1 H    0.936 --    53 N    0.918
   110   1 H    0.937 --    54 N    0.918
   111   1 H    0.935 --    54 N    0.916
   112   1 H    0.946 --    51 N    0.914
   113   1 H    0.943 --    35 N    0.911
 ---------------------------------------------------------------------------

Topologies differ in total number of bonds
Writing topology from bond orders to xtbtopo.mol

molecular dipole:
                 x           y           z       tot (Debye)
 q only:       66.373     104.510      31.321
   full:       66.654     105.323      31.288     326.638
molecular quadrupole (traceless):
                xx          xy          yy          xz          yz          zz
 q only:     -868.119    5230.028    4324.613    1481.064    2540.121   -3456.494
  q+dip:     -891.896    5302.340    4401.088    1474.164    2554.582   -3509.192
   full:     -892.725    5300.129    4403.616    1475.695    2554.887   -3510.891


           -------------------------------------------------
          | TOTAL ENERGY             -165.119673891792 Eh   |
          | GRADIENT NORM               0.258343170879 Eh/α |
          | HOMO-LUMO GAP               0.052153615594 eV   |
           -------------------------------------------------
########################################################################
[WARNING] Runtime exception occurred
-2- restart_readRestart: Dimension missmatch in restart file.
-1- restart_readRestart: Number of electron missmatch in restart file.
########################################################################

------------------------------------------------------------------------
 * finished run on 2025/05/01 at 18:01:39.157     
------------------------------------------------------------------------
 total:
 * wall-time:     0 d,  0 h,  0 min,  0.666 sec
 *  cpu-time:     0 d,  0 h,  0 min, 19.499 sec
 * ratio c/w:    29.284 speedup
 SCF:
 * wall-time:     0 d,  0 h,  0 min,  0.657 sec
 *  cpu-time:     0 d,  0 h,  0 min, 19.288 sec
 * ratio c/w:    29.354 speedup

