      -----------------------------------------------------------      
     |                   =====================                   |     
     |                           x T B                           |     
     |                   =====================                   |     
     |                         S. Grimme                         |     
     |          Mulliken Center for Theoretical Chemistry        |     
     |                    University of Bonn                     |     
      -----------------------------------------------------------      

   * xtb version 6.7.1 (edcfbbe) compiled by 'conda@afd1a870197c' on 2025-04-11

   xtb is free software: you can redistribute it and/or modify it under
   the terms of the GNU Lesser General Public License as published by
   the Free Software Foundation, either version 3 of the License, or
   (at your option) any later version.
   
   xtb is distributed in the hope that it will be useful,
   but WITHOUT ANY WARRANTY; without even the implied warranty of
   MERCHANTABILITY or FITNESS FOR A PARTICULAR PURPOSE.  See the
   GNU Lesser General Public License for more details.
   
   Cite this work as:
   * C. Bannwarth, E. Caldeweyher, S. Ehlert, A. Hansen, P. Pracht,
     J. Seibert, S. Spicher, S. Grimme, WIREs Comput. Mol. Sci., 2020, 11,
     e01493. DOI: 10.1002/wcms.1493
   
   for GFN2-xTB:
   * C. Bannwarth, S. Ehlert and S. Grimme., J. Chem. Theory Comput., 2019,
     15, 1652-1671. DOI: 10.1021/acs.jctc.8b01176
   for GFN1-xTB:
   * S. Grimme, C. Bannwarth, P. Shushkov, J. Chem. Theory Comput., 2017,
     13, 1989-2009. DOI: 10.1021/acs.jctc.7b00118
   for GFN0-xTB:
   * P. Pracht, E. Caldeweyher, S. Ehlert, S. Grimme, ChemRxiv, 2019, preprint.
     DOI: 10.26434/chemrxiv.8326202.v1
   for GFN-FF:
   * S. Spicher and S. Grimme, Angew. Chem. Int. Ed., 2020, 59, 15665-15673.
     DOI: 10.1002/anie.202004239
   
   for ALPB and GBSA implicit solvation:
   * S. Ehlert, M. Stahn, S. Spicher, S. Grimme, J. Chem. Theory Comput.,
     2021, 17, 4250-4261. DOI: 10.1021/acs.jctc.1c00471
   
   for ddCOSMO and CPCM-X implicit solvation:
   * M. Stahn, S. Ehlert, S. Grimme, J. Phys. Chem. A,
     2023, XX, XXXX-XXXX. DOI: 10.1021/acs.jpca.3c04382
   
   for DFT-D4:
   * E. Caldeweyher, C. Bannwarth and S. Grimme, J. Chem. Phys., 2017,
     147, 034112. DOI: 10.1063/1.4993215
   * E. Caldeweyher, S. Ehlert, A. Hansen, H. Neugebauer, S. Spicher,
     C. Bannwarth and S. Grimme, J. Chem. Phys., 2019, 150, 154122.
     DOI: 10.1063/1.5090222
   * E. Caldeweyher, J.-M. Mewes, S. Ehlert and S. Grimme, Phys. Chem. Chem. Phys.
     2020, 22, 8499-8512. DOI: 10.1039/D0CP00502A
   
   for sTDA-xTB:
   * S. Grimme and C. Bannwarth, J. Chem. Phys., 2016, 145, 054103.
     DOI: 10.1063/1.4959605
   
   in the mass-spec context:
   * V. Asgeirsson, C. Bauer and S. Grimme, Chem. Sci., 2017, 8, 4879.
     DOI: 10.1039/c7sc00601b
   * J. Koopman and S. Grimme, ACS Omega 2019, 4, 12, 15120-15133.
     DOI: 10.1021/acsomega.9b02011
   
   for metadynamics refer to:
   * S. Grimme, J. Chem. Theory Comput., 2019, 155, 2847-2862
     DOI: 10.1021/acs.jctc.9b00143
   
   for SPH calculations refer to:
   * S. Spicher and S. Grimme, J. Chem. Theory Comput., 2021, 17, 1701-1714
     DOI: 10.1021/acs.jctc.0c01306
   
   for ONIOM refer to:
   * C. Plett, A. Katbashev, S. Ehlert, S. Grimme, M. Bursch,
     Phys. Chem. Chem. Phys., 2023, 25, 17860-17868. DOI: 10.1039/D3CP02178E
   
   for DIPRO refer to:
   * J. Kohn, N. Gildemeister, S. Grimme, D. Fazzi, A. Hansen,
     J. Chem. Phys., 2023, just accepted.
   
   for PTB refer to:
   * S. Grimme, M. Mueller, A. Hansen, J. Chem. Phys., 2023, 158, 124111.
     DOI: 10.1063/5.0137838
   
   with help from (in alphabetical order)
   P. Atkinson, C. Bannwarth, F. Bohle, G. Brandenburg, E. Caldeweyher
   M. Checinski, S. Dohm, S. Ehlert, S. Ehrlich, I. Gerasimov, C. Hölzer
   A. Katbashev, J. Kohn, J. Koopman, C. Lavigne, S. Lehtola, F. März, M. Müller,
   F. Musil, H. Neugebauer, J. Pisarek, C. Plett, P. Pracht, F. Pultar,
   J. Seibert, P. Shushkov, S. Spicher, M. Stahn, M. Steiner, T. Strunk,
   J. Stückrath, T. Rose, and J. Unsleber
   
 * started run on 2025/05/05 at 17:13:25.775     
   ID    Z sym.   atoms
    1    7 N      1, 5, 13, 19, 28, 36, 44, 52, 60, 66, 73, 79, 82, 83, 91,
                  92, 99, 111, 118
    2    6 C      2, 3, 6, 7, 9-12, 14-18, 20, 21, 23-25, 29, 30, 32, 33, 35,
                  37, 38, 40-43, 45, 46, 48-51, 53, 54, 56-59, 61-65, 67, 68,
                  70-72, 74, 75, 77, 78, 80, 81, 84, 85, 87-90, 93, 94, 96,
                  98, 100, 101, 103-109, 112, 113, 115-117, 119, 120, 122
    3    8 O      4, 8, 22, 26, 27, 31, 39, 47, 55, 69, 76, 86, 95, 97, 102,
                  110, 114, 121
    4   16 S      34
    5    1 H      123-306

           -------------------------------------------------
          |                Calculation Setup                |
           -------------------------------------------------

          program call               : xtb /tmp/tmpsbaji2n5/HID/input.xyz --alpb ether --chrg 1 --input /tmp/tmpsbaji2n5/HID/constraints.inp --gfn 2
          hostname                   : fedora
          coordinate file            : /tmp/tmpsbaji2n5/HID/input.xyz
          omp threads                :                    32


molecular fragmentation (1/2 indicates fragments):
111111111111111111111111111111111111111111122222222222222222222222222222
222222222222222222222222222222222222222222222222222222222222222222222222
222222221111111111111111111111111111111111111111222222222222222222222222
222222222222222222222222222222222222222222222222222222222222222222222222
222222222222222222
# atoms in fragment 1/2:    83   223
 fragment masses (1/2) :      616.73     1163.81
CMA distance (Bohr)    :  12.524
constraining FC (au)   :  0.0500

           -------------------------------------------------
          |                 G F N 2 - x T B                 |
           -------------------------------------------------

        Reference                      10.1021/acs.jctc.8b01176
      * Hamiltonian:
        H0-scaling (s, p, d)           1.850000    2.230000    2.230000
        zeta-weighting                 0.500000
      * Dispersion:
        s8                             2.700000
        a1                             0.520000
        a2                             5.000000
        s9                             5.000000
      * Repulsion:
        kExp                           1.500000    1.000000
        rExp                           1.000000
      * Coulomb:
        alpha                          2.000000
        third order                    shell-resolved
        anisotropic                    true
        a3                             3.000000
        a5                             4.000000
        cn-shift                       1.200000
        cn-exp                         4.000000
        max-rad                        5.000000

      * Solvation model:               ALPB
        Solvent                        ether
        Parameter file                 internal GFN2-xTB/ALPB
        Dielectric constant                4.3300E+00
        Reference state                gsolv [1 M gas/solution]
        Free energy shift                  4.9534E-03 Eh       3.1083E+00 kcal/mol
        Temperature                        2.9815E+02 K
        Density                            7.1300E-01 kg/L
        Solvent mass                       7.4120E+01 g/mol
        Interaction kernel             P16
        Born radius scaling (c1)           1.5847E+00
        Born radii integrator          GBOBC
        Born offset                        0.0000E+00 a0       0.0000E+00 AA
        H-bond correction              true
        Ion screening                  false
        Surface tension                    1.0000E-05 Eh       1.5569E+01 dyn/cm
        Grid points                               230 per atom

          ...................................................
          :                      SETUP                      :
          :.................................................:
          :  # basis functions                 678          :
          :  # atomic orbitals                 677          :
          :  # shells                          429          :
          :  # electrons                       728          :
          :  max. iterations                   250          :
          :  Hamiltonian                  GFN2-xTB          :
          :  restarted?                      false          :
          :  GBSA solvation                   true          :
          :  PC potential                    false          :
          :  electronic temp.          300.0000000     K    :
          :  accuracy                    1.0000000          :
          :  -> integral cutoff          0.2500000E+02      :
          :  -> integral neglect         0.1000000E-07      :
          :  -> SCF convergence          0.1000000E-05 Eh   :
          :  -> wf. convergence          0.1000000E-03 e    :
          :  Broyden damping             0.4000000          :
          :  net charge                          1          :
          :  unpaired electrons                  0          :
          ...................................................

 iter      E             dE          RMSdq      gap      omega  full diag
   1   -408.7784510 -0.408778E+03  0.420E+00    0.06       0.0  T
   2   -406.9376793  0.184077E+01  0.320E+00    0.42       1.0  T
   3   -407.1651943 -0.227515E+00  0.302E+00    0.28       1.0  T
   4   -409.4147562 -0.224956E+01  0.209E+00    0.42       1.0  T
   5   -409.2242252  0.190531E+00  0.194E+00    0.24       1.0  T
   6   -410.1751030 -0.950878E+00  0.200E+00    0.15       1.0  T
   7   -409.8085005  0.366602E+00  0.158E+00    0.16       1.0  T
   8   -410.2654868 -0.456986E+00  0.117E+00    0.01       1.0  T
   9   -410.1314585  0.134028E+00  0.111E+00    0.05       1.0  T
  10   -410.5093012 -0.377843E+00  0.870E-01    0.13       1.0  T
  11   -410.5164897 -0.718851E-02  0.920E-01    0.01       1.0  T
  12   -410.4282975  0.881922E-01  0.873E-01    0.07       1.0  T
  13   -410.4875677 -0.592702E-01  0.802E-01    0.20       1.0  T
  14   -410.4848893  0.267842E-02  0.769E-01    0.18       1.0  T
  15   -410.5109528 -0.260635E-01  0.728E-01    0.06       1.0  T
  16   -410.5537648 -0.428120E-01  0.672E-01    0.04       1.0  T
  17   -410.6898700 -0.136105E+00  0.516E-01    0.00       1.0  T
  18   -410.7595418 -0.696718E-01  0.304E-01    0.02       1.0  T
  19   -410.7603260 -0.784204E-03  0.302E-01    0.02       1.0  T
  20   -410.7003374  0.599885E-01  0.458E-01    0.02       1.0  T
  21   -410.6833296  0.170078E-01  0.476E-01    0.03       1.0  T
  22   -410.6932475 -0.991791E-02  0.429E-01    0.02       1.0  T
  23   -410.7775754 -0.843278E-01  0.144E-01    0.01       1.0  T
  24   -410.7774297  0.145667E-03  0.158E-01    0.02       1.0  T
  25   -410.7828545 -0.542483E-02  0.133E-01    0.00       1.0  T
  26   -410.7829022 -0.476917E-04  0.113E-01    0.00       1.0  T
  27   -410.7872735 -0.437132E-02  0.569E-02    0.00       1.0  T
  28   -410.7881498 -0.876297E-03  0.357E-02    0.01       1.0  T
  29   -410.7883565 -0.206658E-03  0.271E-02    0.01       1.0  T
  30   -410.7886834 -0.326945E-03  0.154E-02    0.01       1.0  T
  31   -410.7887625 -0.790942E-04  0.900E-03    0.01       1.0  T
  32   -410.7887367  0.258262E-04  0.122E-02    0.01       1.0  T
  33   -410.7887866 -0.498755E-04  0.549E-03    0.01       1.0  T
  34   -410.7887937 -0.715585E-05  0.352E-03    0.01       1.6  T
  35   -410.7887989 -0.512163E-05  0.149E-03    0.01       3.8  T
  36   -410.7887997 -0.809221E-06  0.867E-04    0.01       6.6  T
  37   -410.7887999 -0.189872E-06  0.417E-04    0.01      13.7  T

   *** convergence criteria satisfied after 37 iterations ***

         #    Occupation            Energy/Eh            Energy/eV
      -------------------------------------------------------------
         1        2.0000           -0.7720909             -21.0097
       ...           ...                  ...                  ...
       358        1.9407           -0.3862576             -10.5106
       359        1.9286           -0.3860749             -10.5056
       360        1.9238           -0.3860111             -10.5039
       361        1.9155           -0.3859086             -10.5011
       362        1.8284           -0.3851914             -10.4816
       363        1.5564           -0.3841362             -10.4529
       364        1.0865           -0.3831086             -10.4249 (HOMO)
       365        0.9627           -0.3828729             -10.4185 (LUMO)
       366        0.8673           -0.3826901             -10.4135
       367                         -0.3250075              -8.8439
       368                         -0.3030236              -8.2457
       369                         -0.2911333              -7.9221
       ...                                ...                  ...
       677                          1.8357778              49.9541
      -------------------------------------------------------------
                  HL-Gap            0.0002356 Eh            0.0064 eV
             Fermi-level           -0.3829438 Eh          -10.4204 eV

 SCC (total)                   0 d,  0 h,  0 min,  2.149 sec
 SCC setup                      ...        0 min,  0.006 sec (  0.295%)
 Dispersion                     ...        0 min,  0.018 sec (  0.847%)
 classical contributions        ...        0 min,  0.001 sec (  0.051%)
 integral evaluation            ...        0 min,  0.039 sec (  1.815%)
 iterations                     ...        0 min,  1.955 sec ( 90.994%)
 molecular gradient             ...        0 min,  0.125 sec (  5.836%)
 printout                       ...        0 min,  0.003 sec (  0.161%)

         :::::::::::::::::::::::::::::::::::::::::::::::::::::
         ::                     SUMMARY                     ::
         :::::::::::::::::::::::::::::::::::::::::::::::::::::
         :: total energy            -402.763986908882 Eh    ::
         :: total w/o Gsasa/hb      -402.665503257114 Eh    ::
         :: gradient norm              1.595712124053 Eh/a0 ::
         :: HOMO-LUMO gap              0.006412322019 eV    ::
         ::.................................................::
         :: SCC energy              -410.749795769133 Eh    ::
         :: -> isotropic ES            0.871367062619 Eh    ::
         :: -> anisotropic ES          0.131366274301 Eh    ::
         :: -> anisotropic XC          0.320576593712 Eh    ::
         :: -> dispersion             -0.375141894951 Eh    ::
         :: -> Gsolv                  -0.231292862516 Eh    ::
         ::    -> Gelec               -0.132809210748 Eh    ::
         ::    -> Gsasa               -0.086699169277 Eh    ::
         ::    -> Ghb                 -0.016737920068 Eh    ::
         ::    -> Gshift               0.004953437577 Eh    ::
         :: repulsion energy           7.985808860251 Eh    ::
         :: add. restraining           0.000000000000 Eh    ::
         :: total charge               1.000000000000 e     ::
         :::::::::::::::::::::::::::::::::::::::::::::::::::::

           -------------------------------------------------
          |                Property Printout                |
           -------------------------------------------------

    * Orbital Energies and Occupations

         #    Occupation            Energy/Eh            Energy/eV
      -------------------------------------------------------------
         1        2.0000           -0.7720909             -21.0097
       ...           ...                  ...                  ...
       352        2.0000           -0.3997370             -10.8774
       353        2.0000           -0.3975459             -10.8178
       354        2.0000           -0.3966035             -10.7921
       355        2.0000           -0.3953543             -10.7581
       356        1.9999           -0.3922951             -10.6749
       357        1.9904           -0.3880087             -10.5583
       358        1.9407           -0.3862576             -10.5106
       359        1.9286           -0.3860749             -10.5056
       360        1.9238           -0.3860111             -10.5039
       361        1.9155           -0.3859086             -10.5011
       362        1.8284           -0.3851914             -10.4816
       363        1.5564           -0.3841362             -10.4529
       364        1.0865           -0.3831086             -10.4249 (HOMO)
       365        0.9627           -0.3828729             -10.4185 (LUMO)
       366        0.8673           -0.3826901             -10.4135
       367                         -0.3250075              -8.8439
       368                         -0.3030236              -8.2457
       369                         -0.2911333              -7.9221
       370                         -0.2897641              -7.8849
       371                         -0.2638090              -7.1786
       372                         -0.2586737              -7.0389
       373                         -0.2551625              -6.9433
       374                         -0.2459898              -6.6937
       375                         -0.2447998              -6.6613
       ...                                ...                  ...
       677                          1.8357778              49.9541
      -------------------------------------------------------------
                  HL-Gap            0.0002356 Eh            0.0064 eV
             Fermi-level           -0.3829438 Eh          -10.4204 eV

     #   Z          covCN         q      C6AA      α(0)
     1   7 N        2.628    -0.348    28.968     7.994
     2   6 C        3.738    -0.022    21.057     6.548
     3   6 C        2.753     0.275    22.357     7.743
     4   8 O        0.860    -0.485    23.464     6.495
     5   7 N        2.688    -0.160    24.460     7.345
     6   6 C        3.799     0.029    20.088     6.382
     7   6 C        2.752     0.268    22.483     7.764
     8   8 O        0.857    -0.490    23.559     6.508
     9   6 C        3.814    -0.077    21.962     6.670
    10   6 C        3.057     0.008    27.793     8.646
    11   6 C        3.037     0.018    27.564     8.611
    12   6 C        3.129    -0.026    28.445     8.732
    13   7 N        1.930    -0.266    27.745     7.810
    14   6 C        3.083     0.067    26.408     8.424
    15   6 C        2.914    -0.033    28.811     8.802
    16   6 C        2.911    -0.032    28.801     8.800
    17   6 C        2.919    -0.041    29.009     8.832
    18   6 C        2.930    -0.039    28.966     8.826
    19   7 N        2.693    -0.149    24.214     7.308
    20   6 C        3.796     0.022    20.216     6.402
    21   6 C        2.760     0.267    22.499     7.768
    22   8 O        0.858    -0.495    23.682     6.525
    23   6 C        3.809    -0.063    21.709     6.632
    24   6 C        3.807    -0.078    21.979     6.674
    25   6 C        2.687     0.383    20.514     7.412
    26   8 O        0.857    -0.524    24.314     6.611
    27   8 O        0.857    -0.521    24.263     6.604
    28   7 N        2.688    -0.144    24.111     7.293
    29   6 C        3.801     0.013    20.355     6.424
    30   6 C        2.754     0.268    22.469     7.762
    31   8 O        0.858    -0.494    23.649     6.520
    32   6 C        3.823    -0.075    21.918     6.662
    33   6 C        3.798    -0.031    21.130     6.545
    34  16 S        1.956    -0.116   145.893    20.329
    35   6 C        3.750    -0.077    22.027     6.693
    36   7 N        2.690    -0.164    24.550     7.359
    37   6 C        3.791     0.024    20.178     6.397
    38   6 C        2.771     0.192    23.892     8.005
    39   8 O        0.856    -0.339    20.508     6.072
    40   6 C        3.818    -0.077    21.949     6.668
    41   6 C        3.854    -0.013    20.764     6.481
    42   6 C        3.764    -0.115    22.743     6.798
    43   6 C        3.764    -0.126    22.955     6.829
    44   7 N        2.627    -0.348    28.962     7.993
    45   6 C        3.784     0.028    20.126     6.390
    46   6 C        2.764     0.192    23.901     8.006
    47   8 O        0.856    -0.368    21.060     6.153
    48   6 C        3.853    -0.016    20.823     6.490
    49   6 C        3.807    -0.069    21.815     6.649
    50   6 C        3.764    -0.113    22.713     6.793
    51   6 C        3.757    -0.105    22.564     6.772
    52   7 N        2.640    -0.330    28.505     7.929
    53   6 C        3.789     0.042    19.878     6.350
    54   6 C        2.763     0.265    22.525     7.772
    55   8 O        0.858    -0.481    23.364     6.481
    56   6 C        3.815    -0.070    21.819     6.648
    57   6 C        3.049     0.006    27.850     8.655
    58   6 C        3.031     0.020    27.537     8.607
    59   6 C        3.121    -0.028    28.514     8.745
    60   7 N        1.919    -0.279    28.088     7.858
    61   6 C        3.077     0.067    26.414     8.426
    62   6 C        2.913    -0.028    28.709     8.786
    63   6 C        2.911    -0.027    28.667     8.780
    64   6 C        2.919    -0.041    29.013     8.833
    65   6 C        2.926    -0.036    28.888     8.814
    66   7 N        2.697    -0.154    24.334     7.326
    67   6 C        3.804     0.014    20.344     6.421
    68   6 C        2.771     0.272    22.410     7.753
    69   8 O        0.859    -0.510    23.996     6.568
    70   6 C        3.852    -0.019    20.885     6.500
    71   6 C        3.760    -0.122    22.883     6.819
    72   6 C        3.753    -0.127    23.006     6.840
    73   7 N        2.689    -0.165    24.569     7.362
    74   6 C        3.804     0.022    20.208     6.400
    75   6 C        2.751     0.269    22.461     7.760
    76   8 O        0.858    -0.490    23.566     6.509
    77   6 C        3.810    -0.080    22.024     6.680
    78   6 C        3.081     0.029    27.276     8.562
    79   7 N        2.843    -0.149    24.221     7.309
    80   6 C        3.052     0.010    27.745     8.639
    81   6 C        2.103     0.044    29.764     8.815
    82   7 N        1.973    -0.226    26.751     7.670
    83   7 N        2.691    -0.167    24.624     7.370
    84   6 C        3.796     0.019    20.265     6.410
    85   6 C        2.756     0.270    22.434     7.756
    86   8 O        0.859    -0.480    23.341     6.478
    87   6 C        3.809    -0.069    21.813     6.648
    88   6 C        3.804    -0.087    22.154     6.701
    89   6 C        3.802    -0.090    22.225     6.712
    90   6 C        3.733    -0.050    21.566     6.628
    91   7 N        3.485    -0.160    24.441     7.343
    92   7 N        2.690    -0.158    24.414     7.338
    93   6 C        3.792     0.014    20.347     6.424
    94   6 C        2.768     0.201    23.726     7.977
    95   8 O        0.856    -0.346    20.622     6.089
    96   6 C        3.729     0.107    18.920     6.210
    97   8 O        1.652    -0.473    22.310     6.376
    98   6 C        3.756    -0.144    23.333     6.887
    99   7 N        2.636    -0.336    28.655     7.950
   100   6 C        3.791     0.036    19.973     6.365
   101   6 C        2.759     0.265    22.529     7.773
   102   8 O        0.858    -0.485    23.447     6.492
   103   6 C        3.814    -0.079    21.998     6.676
   104   6 C        2.964    -0.006    28.160     8.704
   105   6 C        2.933    -0.054    29.338     8.883
   106   6 C        2.925    -0.045    29.129     8.851
   107   6 C        2.917    -0.079    29.982     8.979
   108   6 C        2.920    -0.061    29.528     8.911
   109   6 C        2.846     0.140    24.935     8.184
   110   8 O        1.661    -0.475    22.357     6.383
   111   7 N        2.692    -0.169    24.666     7.376
   112   6 C        3.799     0.016    20.310     6.417
   113   6 C        2.755     0.267    22.497     7.767
   114   8 O        0.859    -0.494    23.648     6.520
   115   6 C        3.850    -0.018    20.869     6.498
   116   6 C        3.758    -0.119    22.841     6.814
   117   6 C        3.754    -0.119    22.838     6.814
   118   7 N        2.688    -0.159    24.441     7.342
   119   6 C        3.788     0.028    20.122     6.389
   120   6 C        2.765     0.168    24.372     8.085
   121   8 O        0.856    -0.371    21.104     6.159
   122   6 C        3.754    -0.116    22.782     6.806
   123   1 H        0.980     0.003     2.998     2.706
   124   1 H        0.980     0.004     2.982     2.699
   125   1 H        0.980    -0.010     3.227     2.807
   126   1 H        0.980    -0.001     3.064     2.735
   127   1 H        0.980    -0.016     3.350     2.860
   128   1 H        0.980     0.028     2.604     2.522
   129   1 H        0.980    -0.015     3.330     2.852
   130   1 H        0.980     0.002     3.015     2.713
   131   1 H        0.980     0.001     3.038     2.724
   132   1 H        0.980     0.008     2.907     2.664
   133   1 H        0.980    -0.015     3.326     2.850
   134   1 H        0.980    -0.019     3.392     2.878
   135   1 H        0.980     0.041     2.429     2.435
   136   1 H        0.980     0.013     2.838     2.632
   137   1 H        0.980    -0.013     3.278     2.829
   138   1 H        0.980     0.019     2.743     2.588
   139   1 H        0.980    -0.004     3.122     2.761
   140   1 H        0.980     0.000     3.041     2.725
   141   1 H        0.980     0.000     3.041     2.725
   142   1 H        0.980     0.004     2.975     2.695
   143   1 H        0.980     0.004     2.981     2.698
   144   1 H        0.980    -0.009     3.207     2.799
   145   1 H        0.980    -0.006     3.161     2.778
   146   1 H        0.980     0.003     2.993     2.703
   147   1 H        0.980     0.003     3.005     2.709
   148   1 H        0.980    -0.013     3.286     2.833
   149   1 H        0.980     0.008     2.919     2.670
   150   1 H        0.980     0.004     2.976     2.696
   151   1 H        0.980     0.004     2.977     2.696
   152   1 H        0.980    -0.005     3.140     2.769
   153   1 H        0.860     0.181     1.209     1.723
   154   1 H        0.860     0.164     1.310     1.793
   155   1 H        0.927     0.046     2.374     2.409
   156   1 H        0.926     0.081     1.971     2.195
   157   1 H        0.861     0.199     1.109     1.649
   158   1 H        0.926     0.079     1.988     2.205
   159   1 H        0.927     0.089     1.893     2.151
   160   1 H        0.926     0.073     2.057     2.243
   161   1 H        0.929     0.042     2.421     2.433
   162   1 H        0.929     0.052     2.289     2.366
   163   1 H        0.929     0.065     2.143     2.289
   164   1 H        0.929     0.051     2.307     2.375
   165   1 H        0.929     0.057     2.232     2.336
   166   1 H        0.861     0.230     0.965     1.538
   167   1 H        0.926     0.085     1.932     2.174
   168   1 H        0.927     0.063     2.163     2.300
   169   1 H        0.927     0.071     2.069     2.250
   170   1 H        0.927     0.079     1.989     2.206
   171   1 H        0.927     0.072     2.058     2.243
   172   1 H        0.861     0.212     1.045     1.601
   173   1 H        0.927     0.103     1.759     2.074
   174   1 H        0.927     0.074     2.044     2.236
   175   1 H        0.927     0.067     2.118     2.276
   176   1 H        0.927     0.083     1.946     2.181
   177   1 H        0.927     0.074     2.040     2.233
   178   1 H        0.927     0.079     1.993     2.208
   179   1 H        0.927     0.071     2.070     2.250
   180   1 H        0.927     0.068     2.108     2.270
   181   1 H        0.861     0.238     0.932     1.512
   182   1 H        0.926     0.093     1.849     2.127
   183   1 H        0.929     0.070     2.084     2.257
   184   1 H        0.927     0.064     2.155     2.296
   185   1 H        0.927     0.064     2.157     2.297
   186   1 H        0.927     0.041     2.437     2.441
   187   1 H        0.927     0.040     2.448     2.447
   188   1 H        0.927     0.039     2.466     2.456
   189   1 H        0.927     0.043     2.412     2.429
   190   1 H        0.927     0.050     2.315     2.379
   191   1 H        0.927     0.045     2.385     2.415
   192   1 H        0.927     0.039     2.463     2.454
   193   1 H        0.860     0.167     1.291     1.780
   194   1 H        0.860     0.175     1.242     1.746
   195   1 H        0.927     0.061     2.191     2.315
   196   1 H        0.929     0.069     2.098     2.265
   197   1 H        0.927     0.047     2.352     2.398
   198   1 H        0.927     0.039     2.460     2.452
   199   1 H        0.927     0.052     2.289     2.366
   200   1 H        0.927     0.047     2.363     2.404
   201   1 H        0.926     0.053     2.288     2.365
   202   1 H        0.927     0.048     2.341     2.393
   203   1 H        0.927     0.036     2.499     2.472
   204   1 H        0.927     0.040     2.447     2.446
   205   1 H        0.926     0.036     2.506     2.475
   206   1 H        0.860     0.165     1.306     1.790
   207   1 H        0.860     0.175     1.245     1.748
   208   1 H        0.927     0.022     2.705     2.572
   209   1 H        0.927     0.087     1.912     2.162
   210   1 H        0.927     0.066     2.130     2.282
   211   1 H        0.929     0.039     2.456     2.451
   212   1 H        0.929     0.050     2.318     2.381
   213   1 H        0.929     0.071     2.077     2.254
   214   1 H        0.929     0.056     2.244     2.343
   215   1 H        0.929     0.059     2.213     2.326
   216   1 H        0.861     0.202     1.097     1.640
   217   1 H        0.927     0.091     1.865     2.135
   218   1 H        0.927     0.044     2.396     2.421
   219   1 H        0.927     0.050     2.318     2.381
   220   1 H        0.927     0.042     2.420     2.433
   221   1 H        0.927     0.054     2.264     2.353
   222   1 H        0.926     0.052     2.294     2.369
   223   1 H        0.926     0.053     2.285     2.364
   224   1 H        0.927     0.041     2.431     2.438
   225   1 H        0.861     0.236     0.941     1.519
   226   1 H        0.927     0.092     1.855     2.130
   227   1 H        0.927     0.087     1.906     2.159
   228   1 H        0.926     0.088     1.900     2.155
   229   1 H        0.929     0.065     2.137     2.286
   230   1 H        0.861     0.229     0.971     1.544
   231   1 H        0.927     0.073     2.053     2.241
   232   1 H        0.927     0.060     2.204     2.322
   233   1 H        0.927     0.067     2.124     2.279
   234   1 H        0.927     0.056     2.241     2.341
   235   1 H        0.927     0.062     2.173     2.305
   236   1 H        0.927     0.096     1.824     2.112
   237   1 H        0.927     0.063     2.158     2.297
   238   1 H        0.927     0.116     1.643     2.005
   239   1 H        0.927     0.120     1.614     1.987
   240   1 H        0.861     0.212     1.047     1.603
   241   1 H        0.927     0.096     1.820     2.109
   242   1 H        0.929     0.078     2.002     2.212
   243   1 H        0.927     0.073     2.052     2.240
   244   1 H        0.804     0.327     0.645     1.262
   245   1 H        0.927     0.059     2.209     2.324
   246   1 H        0.927     0.067     2.114     2.274
   247   1 H        0.926     0.073     2.058     2.243
   248   1 H        0.860     0.166     1.299     1.786
   249   1 H        0.860     0.174     1.249     1.751
   250   1 H        0.927     0.032     2.556     2.500
   251   1 H        0.927     0.068     2.112     2.273
   252   1 H        0.927     0.063     2.160     2.298
   253   1 H        0.929     0.055     2.261     2.351
   254   1 H        0.929     0.055     2.257     2.349
   255   1 H        0.929     0.046     2.374     2.409
   256   1 H        0.929     0.060     2.194     2.316
   257   1 H        1.751     0.366     0.538     1.145
   258   1 H        0.861     0.221     1.005     1.570
   259   1 H        0.927     0.074     2.040     2.234
   260   1 H        0.927     0.049     2.333     2.389
   261   1 H        0.926     0.047     2.355     2.400
   262   1 H        0.927     0.037     2.488     2.467
   263   1 H        0.927     0.053     2.277     2.359
   264   1 H        0.927     0.051     2.309     2.376
   265   1 H        0.927     0.050     2.317     2.380
   266   1 H        0.926     0.043     2.413     2.429
   267   1 H        0.861     0.214     1.039     1.597
   268   1 H        0.927     0.107     1.721     2.051
   269   1 H        0.929     0.105     1.735     2.060
   270   1 H        0.927     0.061     2.181     2.310
   271   1 H        0.927     0.079     1.991     2.207
   272   1 H        0.927     0.059     2.213     2.326
   273   1 H        0.980    -0.003     3.101     2.752
   274   1 H        0.980    -0.001     3.063     2.735
   275   1 H        0.980     0.010     2.883     2.653
   276   1 H        0.980     0.001     3.035     2.722
   277   1 H        0.980     0.014     2.814     2.621
   278   1 H        0.980    -0.014     3.298     2.838
   279   1 H        0.980     0.003     2.994     2.704
   280   1 H        0.980     0.005     2.960     2.689
   281   1 H        0.980    -0.000     3.053     2.730
   282   1 H        0.980    -0.007     3.175     2.784
   283   1 H        0.980     0.015     2.797     2.613
   284   1 H        0.980     0.021     2.714     2.574
   285   1 H        0.980    -0.013     3.288     2.833
   286   1 H        0.980    -0.011     3.253     2.818
   287   1 H        0.980     0.010     2.875     2.650
   288   1 H        0.980    -0.016     3.337     2.855
   289   1 H        0.980     0.005     2.971     2.694
   290   1 H        0.980    -0.001     3.070     2.738
   291   1 H        0.980    -0.002     3.077     2.741
   292   1 H        0.980    -0.004     3.120     2.760
   293   1 H        0.980    -0.001     3.074     2.739
   294   1 H        0.980     0.008     2.909     2.665
   295   1 H        0.980     0.007     2.934     2.676
   296   1 H        0.980    -0.000     3.052     2.730
   297   1 H        0.980    -0.005     3.131     2.765
   298   1 H        0.980     0.016     2.793     2.612
   299   1 H        0.980    -0.012     3.256     2.820
   300   1 H        0.980    -0.015     3.324     2.849
   301   1 H        0.980    -0.015     3.323     2.848
   302   1 H        0.980     0.027     2.624     2.531
   303   1 H        0.860     0.287     0.753     1.360
   304   1 H        0.860     0.302     0.707     1.317
   305   1 H        0.860     0.301     0.711     1.321
   306   1 H        1.800     0.279     0.767     1.367

 Mol. C6AA /au·bohr⁶  :     768558.530567
 Mol. C8AA /au·bohr⁸  :   16558970.728033
 Mol. α(0) /au        :       1335.628364


Wiberg/Mayer (AO) data.
largest (>0.10) Wiberg bond orders for each atom

 ---------------------------------------------------------------------------
     #   Z sym  total        # sym  WBO       # sym  WBO       # sym  WBO
 ---------------------------------------------------------------------------
     1   7 N    2.967 --     2 C    1.017   154 H    0.958   153 H    0.953
     2   6 C    3.975 --     1 N    1.017   156 H    0.972   155 H    0.953
                             3 C    0.952
     3   6 C    3.945 --     4 O    1.637     5 N    1.303     2 C    0.952
     4   8 O    1.943 --     3 C    1.637     5 N    0.194
     5   7 N    3.470 --     3 C    1.303     6 C    0.977   157 H    0.929
                             4 O    0.194
     6   6 C    3.947 --     5 N    0.977     9 C    0.958   158 H    0.950
                             7 C    0.930
     7   6 C    3.949 --     8 O    1.626    19 N    1.319     6 C    0.930
     8   8 O    1.934 --     7 C    1.626    19 N    0.199
     9   6 C    3.978 --    10 C    1.026   160 H    0.970     6 C    0.958
                           159 H    0.943
    10   6 C    3.708 --    11 C    1.445    12 C    1.137     9 C    1.026
    11   6 C    3.960 --    10 C    1.445    13 N    1.366   161 H    0.970
    12   6 C    3.949 --    15 C    1.379    14 C    1.237    10 C    1.137
    13   7 N    2.690 --    11 C    1.366    14 C    1.216
    14   6 C    3.965 --    16 C    1.342    12 C    1.237    13 N    1.216
    15   6 C    3.897 --    17 C    1.414    12 C    1.379   162 H    0.967
    16   6 C    3.882 --    18 C    1.434    14 C    1.342   163 H    0.967
    17   6 C    3.924 --    15 C    1.414    18 C    1.405   164 H    0.972
    18   6 C    3.945 --    16 C    1.434    17 C    1.405   165 H    0.968
    19   7 N    3.488 --     7 C    1.319    20 C    0.981   166 H    0.909
                             8 O    0.199
    20   6 C    3.955 --    19 N    0.981    23 C    0.965   167 H    0.954
                            21 C    0.942
    21   6 C    3.946 --    22 O    1.584    28 N    1.338    20 C    0.942
    22   8 O    1.929 --    21 C    1.584    28 N    0.192
    23   6 C    3.980 --    24 C    1.003   168 H    0.974   169 H    0.972
                            20 C    0.965
    24   6 C    3.829 --    23 C    1.003   170 H    0.961   171 H    0.954
                            25 C    0.858
    25   6 C    3.901 --    26 O    1.512    27 O    1.508    24 C    0.858
    26   8 O    1.775 --    25 C    1.512    27 O    0.224
    27   8 O    1.772 --    25 C    1.508    26 O    0.224
    28   7 N    3.500 --    21 C    1.338    29 C    0.979   172 H    0.924
                            22 O    0.192
    29   6 C    3.954 --    28 N    0.979    32 C    0.970   173 H    0.942
                            30 C    0.936
    30   6 C    3.953 --    31 O    1.625    36 N    1.323    29 C    0.936
    31   8 O    1.942 --    30 C    1.625    36 N    0.204
    32   6 C    3.981 --    33 C    1.000    29 C    0.970   174 H    0.966
                           175 H    0.963
    33   6 C    3.968 --    32 C    1.000    34 S    0.992   177 H    0.967
                           176 H    0.953
    34  16 S    2.079 --    35 C    1.012    33 C    0.992
    35   6 C    3.967 --    34 S    1.012   179 H    0.979   178 H    0.977
                           180 H    0.969
    36   7 N    3.485 --    30 C    1.323    37 C    0.975   181 H    0.894
                            31 O    0.204
    37   6 C    3.967 --    38 C    0.993    36 N    0.975    40 C    0.949
                           182 H    0.944
    38   6 C    3.912 --    39 O    1.906    37 C    0.993   183 H    0.947
    39   8 O    2.059 --    38 C    1.906
    40   6 C    3.984 --    41 C    0.989   185 H    0.973   184 H    0.970
                            37 C    0.949
    41   6 C    3.995 --    42 C    1.012    43 C    1.005    40 C    0.989
                           186 H    0.969
    42   6 C    3.996 --    41 C    1.012   189 H    0.985   187 H    0.983
                           188 H    0.981
    43   6 C    3.993 --    41 C    1.005   192 H    0.986   191 H    0.985
                           190 H    0.977
    44   7 N    2.964 --    45 C    1.006   193 H    0.958   194 H    0.952
    45   6 C    3.973 --    44 N    1.006    46 C    0.997   195 H    0.947
                            48 C    0.935
    46   6 C    3.903 --    47 O    1.884    45 C    0.997   196 H    0.949
    47   8 O    2.037 --    46 C    1.884
    48   6 C    3.985 --    50 C    1.013    49 C    0.991   197 H    0.956
                            45 C    0.935
    49   6 C    3.995 --    51 C    1.018    48 C    0.991   198 H    0.979
                           199 H    0.978
    50   6 C    3.995 --    48 C    1.013   201 H    0.980   202 H    0.976
                           200 H    0.975
    51   6 C    3.997 --    49 C    1.018   204 H    0.986   205 H    0.983
                           203 H    0.981
    52   7 N    3.008 --    53 C    1.018   206 H    0.954   207 H    0.952
    53   6 C    3.959 --    52 N    1.018   208 H    0.956    56 C    0.945
                            54 C    0.937
    54   6 C    3.949 --    55 O    1.615    66 N    1.320    53 C    0.937
    55   8 O    1.958 --    54 C    1.615    66 N    0.197
    56   6 C    3.977 --    57 C    1.041   210 H    0.964   209 H    0.947
                            53 C    0.945
    57   6 C    3.713 --    58 C    1.403    59 C    1.150    56 C    1.041
    58   6 C    3.962 --    60 N    1.405    57 C    1.403   211 H    0.970
    59   6 C    3.966 --    62 C    1.390    61 C    1.236    57 C    1.150
    60   7 N    2.735 --    58 C    1.405    61 C    1.207
    61   6 C    3.969 --    63 C    1.355    59 C    1.236    60 N    1.207
    62   6 C    3.889 --    59 C    1.390    64 C    1.385   212 H    0.970
    63   6 C    3.882 --    65 C    1.410    61 C    1.355   213 H    0.966
    64   6 C    3.931 --    65 C    1.436    62 C    1.385   214 H    0.973
    65   6 C    3.939 --    64 C    1.436    63 C    1.410   215 H    0.971
    66   7 N    3.495 --    54 C    1.320    67 C    0.972   216 H    0.925
                            55 O    0.197
    67   6 C    3.956 --    66 N    0.972    70 C    0.960   217 H    0.949
                            68 C    0.942
    68   6 C    3.951 --    69 O    1.598    73 N    1.329    67 C    0.942
    69   8 O    1.932 --    68 C    1.598    73 N    0.200
    70   6 C    3.989 --    71 C    1.012    72 C    0.998   218 H    0.970
                            67 C    0.960
    71   6 C    3.992 --    70 C    1.012   221 H    0.981   220 H    0.980
                           219 H    0.977
    72   6 C    3.992 --    70 C    0.998   224 H    0.987   223 H    0.986
                           222 H    0.980
    73   7 N    3.489 --    68 C    1.329    74 C    0.984   225 H    0.892
                            69 O    0.200
    74   6 C    3.963 --    73 N    0.984    77 C    0.962    75 C    0.947
                           226 H    0.937
    75   6 C    3.954 --    76 O    1.619    83 N    1.319    74 C    0.947
    76   8 O    1.945 --    75 C    1.619    83 N    0.197
    77   6 C    3.986 --    78 C    1.013    74 C    0.962   228 H    0.952
                           227 H    0.952
    78   6 C    3.902 --    80 C    1.564    79 N    1.149    77 C    1.013
                            81 C    0.114
    79   7 N    3.500 --    81 C    1.312    78 C    1.149   306 H    0.733
                           110 O    0.127
    80   6 C    3.893 --    78 C    1.564    82 N    1.211   229 H    0.963
    81   6 C    3.214 --    82 N    1.695    79 N    1.312    78 C    0.114
    82   7 N    3.063 --    81 C    1.695    80 C    1.211
    83   7 N    3.475 --    75 C    1.319    84 C    0.973   230 H    0.901
                            76 O    0.197
    84   6 C    3.965 --    83 N    0.973    87 C    0.964   231 H    0.953
                            85 C    0.949
    85   6 C    3.949 --    86 O    1.634    92 N    1.297    84 C    0.949
    86   8 O    1.966 --    85 C    1.634    92 N    0.194
    87   6 C    3.988 --    88 C    1.007   232 H    0.975   233 H    0.970
                            84 C    0.964
    88   6 C    3.993 --    87 C    1.007    89 C    1.003   234 H    0.974
                           235 H    0.973
    89   6 C    3.985 --    90 C    1.012    88 C    1.003   237 H    0.967
                           236 H    0.961
    90   6 C    3.908 --    89 C    1.012   239 H    0.968   238 H    0.968
                            91 N    0.940
    91   7 N    3.657 --    90 C    0.940   305 H    0.899   303 H    0.897
                           304 H    0.895
    92   7 N    3.471 --    85 C    1.297    93 C    0.982   240 H    0.914
                            86 O    0.194
    93   6 C    3.968 --    92 N    0.982    94 C    0.976   241 H    0.940
                            96 C    0.933
    94   6 C    3.901 --    95 O    1.899    93 C    0.976   242 H    0.947
    95   8 O    2.059 --    94 C    1.899
    96   6 C    3.951 --    98 C    0.995    97 O    0.994   243 H    0.962
                            93 C    0.933
    97   8 O    1.948 --    96 C    0.994   244 H    0.868
    98   6 C    3.987 --    96 C    0.995   245 H    0.983   247 H    0.978
                           246 H    0.973
    99   7 N    2.978 --   100 C    1.017   248 H    0.957   249 H    0.953
   100   6 C    3.976 --    99 N    1.017   103 C    0.963   250 H    0.946
                           101 C    0.944
   101   6 C    3.946 --   102 O    1.638   111 N    1.299   100 C    0.944
   102   8 O    1.944 --   101 C    1.638   111 N    0.199
   103   6 C    3.990 --   104 C    1.007   251 H    0.974   100 C    0.963
                           252 H    0.960
   104   6 C    3.988 --   105 C    1.411   106 C    1.408   103 C    1.007
   105   6 C    3.991 --   107 C    1.439   104 C    1.411   253 H    0.958
                           108 C    0.111
   106   6 C    3.990 --   108 C    1.455   104 C    1.408   254 H    0.970
                           107 C    0.102
   107   6 C    3.989 --   105 C    1.439   109 C    1.385   255 H    0.967
                           106 C    0.102
   108   6 C    3.987 --   106 C    1.455   109 C    1.357   256 H    0.970
                           105 C    0.111
   109   6 C    3.930 --   107 C    1.385   108 C    1.357   110 O    1.047
   110   8 O    2.061 --   109 C    1.047   257 H    0.693    79 N    0.127
   111   7 N    3.473 --   101 C    1.299   112 C    0.984   258 H    0.907
                           102 O    0.199
   112   6 C    3.966 --   111 N    0.984   259 H    0.956   115 C    0.956
                           113 C    0.939
   113   6 C    3.950 --   114 O    1.606   118 N    1.324   112 C    0.939
   114   8 O    1.945 --   113 C    1.606   118 N    0.196
   115   6 C    3.989 --   116 C    1.007   117 C    1.001   260 H    0.971
                           112 C    0.956
   116   6 C    3.994 --   115 C    1.007   261 H    0.986   262 H    0.983
                           263 H    0.981
   117   6 C    3.993 --   115 C    1.001   264 H    0.987   266 H    0.987
                           265 H    0.986
   118   7 N    3.490 --   113 C    1.324   119 C    0.972   267 H    0.923
                           114 O    0.196
   119   6 C    3.959 --   120 C    0.993   118 N    0.972   122 C    0.955
                           268 H    0.940
   120   6 C    3.883 --   121 O    1.887   119 C    0.993   269 H    0.873
   121   8 O    2.036 --   120 C    1.887
   122   6 C    3.983 --   270 H    0.987   272 H    0.982   271 H    0.975
                           119 C    0.955
   123   1 H    1.000 --   273 H    0.995
   124   1 H    1.000 --   274 H    0.989
   125   1 H    0.999 --   275 H    0.988
   126   1 H    1.000 --   276 H    0.997
   127   1 H    1.000 --   277 H    0.936
   128   1 H    0.999 --   278 H    0.909
   129   1 H    1.000 --   279 H    0.960
   130   1 H    1.000 --   280 H    0.979
   131   1 H    1.000 --   281 H    0.995
   132   1 H    1.000 --   282 H    0.971
   133   1 H    1.000 --   283 H    0.982
   134   1 H    1.000 --   284 H    0.974
   135   1 H    0.998 --   285 H    0.913
   136   1 H    1.000 --   286 H    0.987
   137   1 H    1.000 --   287 H    0.957
   138   1 H    1.000 --   288 H    0.940
   139   1 H    1.000 --   289 H    0.994
   140   1 H    1.000 --   290 H    0.982
   141   1 H    1.000 --   291 H    0.975
   142   1 H    1.000 --   292 H    0.994
   143   1 H    1.000 --   293 H    0.978
   144   1 H    1.000 --   294 H    0.976
   145   1 H    1.000 --   295 H    0.987
   146   1 H    0.999 --   296 H    0.976
   147   1 H    1.000 --   297 H    0.969
   148   1 H    1.000 --   298 H    0.959
   149   1 H    1.000 --   299 H    0.960
   150   1 H    1.000 --   300 H    0.935
   151   1 H    1.000 --   301 H    0.944
   152   1 H    1.000 --   302 H    0.880
   153   1 H    0.965 --     1 N    0.953
   154   1 H    0.972 --     1 N    0.958
   155   1 H    0.987 --     2 C    0.953
   156   1 H    0.992 --     2 C    0.972
   157   1 H    0.960 --     5 N    0.929
   158   1 H    0.993 --     6 C    0.950
   159   1 H    0.977 --     9 C    0.943
   160   1 H    0.994 --     9 C    0.970
   161   1 H    0.997 --    11 C    0.970
   162   1 H    0.996 --    15 C    0.967
   163   1 H    0.994 --    16 C    0.967
   164   1 H    0.997 --    17 C    0.972
   165   1 H    0.996 --    18 C    0.968
   166   1 H    0.947 --    19 N    0.909
   167   1 H    0.993 --    20 C    0.954
   168   1 H    0.995 --    23 C    0.974
   169   1 H    0.993 --    23 C    0.972
   170   1 H    0.990 --    24 C    0.961
   171   1 H    0.990 --    24 C    0.954
   172   1 H    0.955 --    28 N    0.924
   173   1 H    0.989 --    29 C    0.942
   174   1 H    0.994 --    32 C    0.966
   175   1 H    0.995 --    32 C    0.963
   176   1 H    0.993 --    33 C    0.953
   177   1 H    0.986 --    33 C    0.967
   178   1 H    0.994 --    35 C    0.977
   179   1 H    0.988 --    35 C    0.979
   180   1 H    0.990 --    35 C    0.969
   181   1 H    0.943 --    36 N    0.894
   182   1 H    0.991 --    37 C    0.944
   183   1 H    0.994 --    38 C    0.947
   184   1 H    0.995 --    40 C    0.970
   185   1 H    0.996 --    40 C    0.973
   186   1 H    0.998 --    41 C    0.969
   187   1 H    0.998 --    42 C    0.983
   188   1 H    0.998 --    42 C    0.981
   189   1 H    0.998 --    42 C    0.985
   190   1 H    0.997 --    43 C    0.977
   191   1 H    0.997 --    43 C    0.985
   192   1 H    0.998 --    43 C    0.986
   193   1 H    0.971 --    44 N    0.958
   194   1 H    0.968 --    44 N    0.952
   195   1 H    0.983 --    45 C    0.947
   196   1 H    0.994 --    46 C    0.949
   197   1 H    0.998 --    48 C    0.956
   198   1 H    0.998 --    49 C    0.979
   199   1 H    0.997 --    49 C    0.978
   200   1 H    0.998 --    50 C    0.975
   201   1 H    0.997 --    50 C    0.980
   202   1 H    0.998 --    50 C    0.976
   203   1 H    0.999 --    51 C    0.981
   204   1 H    0.998 --    51 C    0.986
   205   1 H    0.999 --    51 C    0.983
   206   1 H    0.969 --    52 N    0.954
   207   1 H    0.969 --    52 N    0.952
   208   1 H    0.991 --    53 C    0.956
   209   1 H    0.977 --    56 C    0.947
   210   1 H    0.992 --    56 C    0.964
   211   1 H    0.998 --    58 C    0.970
   212   1 H    0.997 --    62 C    0.970
   213   1 H    0.994 --    63 C    0.966
   214   1 H    0.997 --    64 C    0.973
   215   1 H    0.996 --    65 C    0.971
   216   1 H    0.959 --    66 N    0.925
   217   1 H    0.992 --    67 C    0.949
   218   1 H    0.998 --    70 C    0.970
   219   1 H    0.997 --    71 C    0.977
   220   1 H    0.998 --    71 C    0.980
   221   1 H    0.996 --    71 C    0.981
   222   1 H    0.997 --    72 C    0.980
   223   1 H    0.997 --    72 C    0.986
   224   1 H    0.998 --    72 C    0.987
   225   1 H    0.944 --    73 N    0.892
   226   1 H    0.990 --    74 C    0.937
   227   1 H    0.992 --    77 C    0.952
   228   1 H    0.989 --    77 C    0.952
   229   1 H    0.995 --    80 C    0.963
   230   1 H    0.948 --    83 N    0.901
   231   1 H    0.995 --    84 C    0.953
   232   1 H    0.996 --    87 C    0.975
   233   1 H    0.995 --    87 C    0.970
   234   1 H    0.997 --    88 C    0.974
   235   1 H    0.996 --    88 C    0.973
   236   1 H    0.991 --    89 C    0.961
   237   1 H    0.996 --    89 C    0.967
   238   1 H    0.986 --    90 C    0.968
   239   1 H    0.985 --    90 C    0.968
   240   1 H    0.955 --    92 N    0.914
   241   1 H    0.991 --    93 C    0.940
   242   1 H    0.994 --    94 C    0.947
   243   1 H    0.994 --    96 C    0.962
   244   1 H    0.893 --    97 O    0.868
   245   1 H    0.997 --    98 C    0.983
   246   1 H    0.995 --    98 C    0.973
   247   1 H    0.993 --    98 C    0.978
   248   1 H    0.971 --    99 N    0.957
   249   1 H    0.967 --    99 N    0.953
   250   1 H    0.985 --   100 C    0.946
   251   1 H    0.994 --   103 C    0.974
   252   1 H    0.995 --   103 C    0.960
   253   1 H    0.997 --   105 C    0.958
   254   1 H    0.996 --   106 C    0.970
   255   1 H    0.998 --   107 C    0.967
   256   1 H    0.996 --   108 C    0.970
   257   1 H    0.865 --   110 O    0.693   306 H    0.141
   258   1 H    0.951 --   111 N    0.907
   259   1 H    0.994 --   112 C    0.956
   260   1 H    0.998 --   115 C    0.971
   261   1 H    0.998 --   116 C    0.986
   262   1 H    0.999 --   116 C    0.983
   263   1 H    0.997 --   116 C    0.981
   264   1 H    0.997 --   117 C    0.987
   265   1 H    0.997 --   117 C    0.986
   266   1 H    0.998 --   117 C    0.987
   267   1 H    0.954 --   118 N    0.923
   268   1 H    0.988 --   119 C    0.940
   269   1 H    0.988 --   120 C    0.873
   270   1 H    0.996 --   122 C    0.987
   271   1 H    0.994 --   122 C    0.975
   272   1 H    0.996 --   122 C    0.982
   273   1 H    1.000 --   123 H    0.995
   274   1 H    1.000 --   124 H    0.989
   275   1 H    1.000 --   125 H    0.988
   276   1 H    1.000 --   126 H    0.997
   277   1 H    1.000 --   127 H    0.936
   278   1 H    1.000 --   128 H    0.909
   279   1 H    1.000 --   129 H    0.960
   280   1 H    1.000 --   130 H    0.979
   281   1 H    1.000 --   131 H    0.995
   282   1 H    1.000 --   132 H    0.971
   283   1 H    1.000 --   133 H    0.982
   284   1 H    1.000 --   134 H    0.974
   285   1 H    1.000 --   135 H    0.913
   286   1 H    1.000 --   136 H    0.987
   287   1 H    1.000 --   137 H    0.957
   288   1 H    1.000 --   138 H    0.940
   289   1 H    1.000 --   139 H    0.994
   290   1 H    1.000 --   140 H    0.982
   291   1 H    1.000 --   141 H    0.975
   292   1 H    1.000 --   142 H    0.994
   293   1 H    1.000 --   143 H    0.978
   294   1 H    1.000 --   144 H    0.976
   295   1 H    1.000 --   145 H    0.987
   296   1 H    1.000 --   146 H    0.976
   297   1 H    1.000 --   147 H    0.969
   298   1 H    1.000 --   148 H    0.959
   299   1 H    1.000 --   149 H    0.960
   300   1 H    1.000 --   150 H    0.935
   301   1 H    1.000 --   151 H    0.944
   302   1 H    0.999 --   152 H    0.880
   303   1 H    0.918 --    91 N    0.897
   304   1 H    0.909 --    91 N    0.895
   305   1 H    0.909 --    91 N    0.899
   306   1 H    0.922 --    79 N    0.733   257 H    0.141
 ---------------------------------------------------------------------------

Topologies differ in total number of bonds
Writing topology from bond orders to xtbtopo.mol

molecular dipole:
                 x           y           z       tot (Debye)
 q only:       58.860       1.677      47.346
   full:       59.753       1.465      48.009     194.862
molecular quadrupole (traceless):
                xx          xy          yy          xz          yz          zz
 q only:     2354.107      87.507   -3049.755    4265.085     114.291     695.648
  q+dip:     2449.765      70.370   -3154.123    4399.233      96.159     704.358
   full:     2439.201      64.139   -3151.065    4399.959      99.091     711.865


           -------------------------------------------------
          | TOTAL ENERGY             -402.763986908882 Eh   |
          | GRADIENT NORM               1.595712124053 Eh/α |
          | HOMO-LUMO GAP               0.006412322019 eV   |
           -------------------------------------------------
########################################################################
[WARNING] Runtime exception occurred
-3- restart_readRestart: Dimension missmatch in restart file.
-2- restart_readRestart: Multiplicity missmatch in restart file.
-1- restart_readRestart: Number of electron missmatch in restart file.
########################################################################

------------------------------------------------------------------------
 * finished run on 2025/05/05 at 17:13:27.964     
------------------------------------------------------------------------
 total:
 * wall-time:     0 d,  0 h,  0 min,  2.189 sec
 *  cpu-time:     0 d,  0 h,  1 min,  7.901 sec
 * ratio c/w:    31.020 speedup
 SCF:
 * wall-time:     0 d,  0 h,  0 min,  2.151 sec
 *  cpu-time:     0 d,  0 h,  1 min,  6.886 sec
 * ratio c/w:    31.092 speedup

