      -----------------------------------------------------------      
     |                   =====================                   |     
     |                           x T B                           |     
     |                   =====================                   |     
     |                         S. Grimme                         |     
     |          Mulliken Center for Theoretical Chemistry        |     
     |                    University of Bonn                     |     
      -----------------------------------------------------------      

   * xtb version 6.7.1 (edcfbbe) compiled by 'conda@afd1a870197c' on 2025-04-11

   xtb is free software: you can redistribute it and/or modify it under
   the terms of the GNU Lesser General Public License as published by
   the Free Software Foundation, either version 3 of the License, or
   (at your option) any later version.
   
   xtb is distributed in the hope that it will be useful,
   but WITHOUT ANY WARRANTY; without even the implied warranty of
   MERCHANTABILITY or FITNESS FOR A PARTICULAR PURPOSE.  See the
   GNU Lesser General Public License for more details.
   
   Cite this work as:
   * C. Bannwarth, E. Caldeweyher, S. Ehlert, A. Hansen, P. Pracht,
     J. Seibert, S. Spicher, S. Grimme, WIREs Comput. Mol. Sci., 2020, 11,
     e01493. DOI: 10.1002/wcms.1493
   
   for GFN2-xTB:
   * C. Bannwarth, S. Ehlert and S. Grimme., J. Chem. Theory Comput., 2019,
     15, 1652-1671. DOI: 10.1021/acs.jctc.8b01176
   for GFN1-xTB:
   * S. Grimme, C. Bannwarth, P. Shushkov, J. Chem. Theory Comput., 2017,
     13, 1989-2009. DOI: 10.1021/acs.jctc.7b00118
   for GFN0-xTB:
   * P. Pracht, E. Caldeweyher, S. Ehlert, S. Grimme, ChemRxiv, 2019, preprint.
     DOI: 10.26434/chemrxiv.8326202.v1
   for GFN-FF:
   * S. Spicher and S. Grimme, Angew. Chem. Int. Ed., 2020, 59, 15665-15673.
     DOI: 10.1002/anie.202004239
   
   for ALPB and GBSA implicit solvation:
   * S. Ehlert, M. Stahn, S. Spicher, S. Grimme, J. Chem. Theory Comput.,
     2021, 17, 4250-4261. DOI: 10.1021/acs.jctc.1c00471
   
   for ddCOSMO and CPCM-X implicit solvation:
   * M. Stahn, S. Ehlert, S. Grimme, J. Phys. Chem. A,
     2023, XX, XXXX-XXXX. DOI: 10.1021/acs.jpca.3c04382
   
   for DFT-D4:
   * E. Caldeweyher, C. Bannwarth and S. Grimme, J. Chem. Phys., 2017,
     147, 034112. DOI: 10.1063/1.4993215
   * E. Caldeweyher, S. Ehlert, A. Hansen, H. Neugebauer, S. Spicher,
     C. Bannwarth and S. Grimme, J. Chem. Phys., 2019, 150, 154122.
     DOI: 10.1063/1.5090222
   * E. Caldeweyher, J.-M. Mewes, S. Ehlert and S. Grimme, Phys. Chem. Chem. Phys.
     2020, 22, 8499-8512. DOI: 10.1039/D0CP00502A
   
   for sTDA-xTB:
   * S. Grimme and C. Bannwarth, J. Chem. Phys., 2016, 145, 054103.
     DOI: 10.1063/1.4959605
   
   in the mass-spec context:
   * V. Asgeirsson, C. Bauer and S. Grimme, Chem. Sci., 2017, 8, 4879.
     DOI: 10.1039/c7sc00601b
   * J. Koopman and S. Grimme, ACS Omega 2019, 4, 12, 15120-15133.
     DOI: 10.1021/acsomega.9b02011
   
   for metadynamics refer to:
   * S. Grimme, J. Chem. Theory Comput., 2019, 155, 2847-2862
     DOI: 10.1021/acs.jctc.9b00143
   
   for SPH calculations refer to:
   * S. Spicher and S. Grimme, J. Chem. Theory Comput., 2021, 17, 1701-1714
     DOI: 10.1021/acs.jctc.0c01306
   
   for ONIOM refer to:
   * C. Plett, A. Katbashev, S. Ehlert, S. Grimme, M. Bursch,
     Phys. Chem. Chem. Phys., 2023, 25, 17860-17868. DOI: 10.1039/D3CP02178E
   
   for DIPRO refer to:
   * J. Kohn, N. Gildemeister, S. Grimme, D. Fazzi, A. Hansen,
     J. Chem. Phys., 2023, just accepted.
   
   for PTB refer to:
   * S. Grimme, M. Mueller, A. Hansen, J. Chem. Phys., 2023, 158, 124111.
     DOI: 10.1063/5.0137838
   
   with help from (in alphabetical order)
   P. Atkinson, C. Bannwarth, F. Bohle, G. Brandenburg, E. Caldeweyher
   M. Checinski, S. Dohm, S. Ehlert, S. Ehrlich, I. Gerasimov, C. Hölzer
   A. Katbashev, J. Kohn, J. Koopman, C. Lavigne, S. Lehtola, F. März, M. Müller,
   F. Musil, H. Neugebauer, J. Pisarek, C. Plett, P. Pracht, F. Pultar,
   J. Seibert, P. Shushkov, S. Spicher, M. Stahn, M. Steiner, T. Strunk,
   J. Stückrath, T. Rose, and J. Unsleber
   
 * started run on 2025/05/05 at 17:13:27.983     
   ID    Z sym.   atoms
    1    7 N      1, 5, 13, 19, 28, 36, 44, 52, 60, 66, 73, 79, 82, 83, 91,
                  92, 99, 111, 118
    2    6 C      2, 3, 6, 7, 9-12, 14-18, 20, 21, 23-25, 29, 30, 32, 33, 35,
                  37, 38, 40-43, 45, 46, 48-51, 53, 54, 56-59, 61-65, 67, 68,
                  70-72, 74, 75, 77, 78, 80, 81, 84, 85, 87-90, 93, 94, 96,
                  98, 100, 101, 103-109, 112, 113, 115-117, 119, 120, 122
    3    8 O      4, 8, 22, 26, 27, 31, 39, 47, 55, 69, 76, 86, 95, 97, 102,
                  110, 114, 121
    4   16 S      34
    5    1 H      123-306

           -------------------------------------------------
          |                Calculation Setup                |
           -------------------------------------------------

          program call               : xtb /tmp/tmpsbaji2n5/HIE/input.xyz --alpb ether --chrg 1 --input /tmp/tmpsbaji2n5/HIE/constraints.inp --gfn 2
          hostname                   : fedora
          coordinate file            : /tmp/tmpsbaji2n5/HIE/input.xyz
          omp threads                :                    32


molecular fragmentation (1/2 indicates fragments):
111111111111111111111111111111111111111111122222222222222222222222222222
222222222222222222222222222222222222222222222222222222222222222222222222
222222221111111111111111111111111111111111111111222222222222222222222222
222222222222222222222222222222222222222222222222222222222222222222222222
222222222222222222
# atoms in fragment 1/2:    83   223
 fragment masses (1/2) :      616.73     1163.81
CMA distance (Bohr)    :  12.518
constraining FC (au)   :  0.0500

           -------------------------------------------------
          |                 G F N 2 - x T B                 |
           -------------------------------------------------

        Reference                      10.1021/acs.jctc.8b01176
      * Hamiltonian:
        H0-scaling (s, p, d)           1.850000    2.230000    2.230000
        zeta-weighting                 0.500000
      * Dispersion:
        s8                             2.700000
        a1                             0.520000
        a2                             5.000000
        s9                             5.000000
      * Repulsion:
        kExp                           1.500000    1.000000
        rExp                           1.000000
      * Coulomb:
        alpha                          2.000000
        third order                    shell-resolved
        anisotropic                    true
        a3                             3.000000
        a5                             4.000000
        cn-shift                       1.200000
        cn-exp                         4.000000
        max-rad                        5.000000

      * Solvation model:               ALPB
        Solvent                        ether
        Parameter file                 internal GFN2-xTB/ALPB
        Dielectric constant                4.3300E+00
        Reference state                gsolv [1 M gas/solution]
        Free energy shift                  4.9534E-03 Eh       3.1083E+00 kcal/mol
        Temperature                        2.9815E+02 K
        Density                            7.1300E-01 kg/L
        Solvent mass                       7.4120E+01 g/mol
        Interaction kernel             P16
        Born radius scaling (c1)           1.5847E+00
        Born radii integrator          GBOBC
        Born offset                        0.0000E+00 a0       0.0000E+00 AA
        H-bond correction              true
        Ion screening                  false
        Surface tension                    1.0000E-05 Eh       1.5569E+01 dyn/cm
        Grid points                               230 per atom

          ...................................................
          :                      SETUP                      :
          :.................................................:
          :  # basis functions                 678          :
          :  # atomic orbitals                 677          :
          :  # shells                          429          :
          :  # electrons                       728          :
          :  max. iterations                   250          :
          :  Hamiltonian                  GFN2-xTB          :
          :  restarted?                      false          :
          :  GBSA solvation                   true          :
          :  PC potential                    false          :
          :  electronic temp.          300.0000000     K    :
          :  accuracy                    1.0000000          :
          :  -> integral cutoff          0.2500000E+02      :
          :  -> integral neglect         0.1000000E-07      :
          :  -> SCF convergence          0.1000000E-05 Eh   :
          :  -> wf. convergence          0.1000000E-03 e    :
          :  Broyden damping             0.4000000          :
          :  net charge                          1          :
          :  unpaired electrons                  0          :
          ...................................................

 iter      E             dE          RMSdq      gap      omega  full diag
   1   -408.8299302 -0.408830E+03  0.420E+00    0.06       0.0  T
   2   -407.7221894  0.110774E+01  0.299E+00    0.05       1.0  T
   3   -407.6109679  0.111221E+00  0.284E+00    0.06       1.0  T
   4   -409.9155696 -0.230460E+01  0.183E+00    0.02       1.0  T
   5   -410.2747601 -0.359191E+00  0.201E+00    0.01       1.0  T
   6   -410.4440687 -0.169309E+00  0.122E+00    0.04       1.0  T
   7   -410.0680118  0.376057E+00  0.135E+00    0.06       1.0  T
   8   -410.1290640 -0.610522E-01  0.117E+00    0.10       1.0  T
   9   -410.5217681 -0.392704E+00  0.942E-01    0.09       1.0  T
  10   -410.2753252  0.246443E+00  0.107E+00    0.25       1.0  T
  11   -410.5339202 -0.258595E+00  0.817E-01    0.03       1.0  T
  12   -410.5601635 -0.262433E-01  0.690E-01    0.02       1.0  T
  13   -410.5193857  0.407778E-01  0.806E-01    0.22       1.0  T
  14   -410.6835272 -0.164142E+00  0.606E-01    0.04       1.0  T
  15   -410.6767378  0.678944E-02  0.639E-01    0.06       1.0  T
  16   -410.6957492 -0.190114E-01  0.576E-01    0.02       1.0  T
  17   -410.7145731 -0.188239E-01  0.535E-01    0.01       1.0  T
  18   -410.6899226  0.246505E-01  0.588E-01    0.03       1.0  T
  19   -410.5638580  0.126065E+00  0.726E-01    0.06       1.0  T
  20   -410.6235498 -0.596918E-01  0.679E-01    0.05       1.0  T
  21   -410.7163072 -0.927574E-01  0.518E-01    0.00       1.0  T
  22   -410.6491397  0.671675E-01  0.559E-01    0.00       1.0  T
  23   -410.7933131 -0.144173E+00  0.311E-01    0.05       1.0  T
  24   -410.7916300  0.168309E-02  0.318E-01    0.02       1.0  T
  25   -410.7585175  0.331126E-01  0.378E-01    0.01       1.0  T
  26   -410.8361238 -0.776064E-01  0.116E-01    0.00       1.0  T
  27   -410.8324087  0.371514E-02  0.151E-01    0.00       1.0  T
  28   -410.8374080 -0.499936E-02  0.103E-01    0.00       1.0  T
  29   -410.8407880 -0.337998E-02  0.544E-02    0.00       1.0  T
  30   -410.8400228  0.765222E-03  0.604E-02    0.01       1.0  T
  31   -410.8416865 -0.166367E-02  0.267E-02    0.01       1.0  T
  32   -410.8413532  0.333253E-03  0.330E-02    0.01       1.0  T
  33   -410.8418608 -0.507632E-03  0.163E-02    0.01       1.0  T
  34   -410.8419605 -0.996808E-04  0.705E-03    0.00       1.0  T
  35   -410.8419746 -0.141127E-04  0.472E-03    0.00       1.2  T
  36   -410.8419758 -0.111560E-05  0.414E-03    0.00       1.4  T
  37   -410.8419854 -0.965794E-05  0.185E-03    0.01       3.1  T
  38   -410.8419849  0.542004E-06  0.180E-03    0.01       3.2  T
  39   -410.8419861 -0.127879E-05  0.904E-04    0.01       6.3  T
  40   -410.8419864 -0.263045E-06  0.579E-04    0.01       9.9  T
  41   -410.8419865 -0.132243E-06  0.252E-04    0.01      22.7  T

   *** convergence criteria satisfied after 41 iterations ***

         #    Occupation            Energy/Eh            Energy/eV
      -------------------------------------------------------------
         1        2.0000           -0.7710623             -20.9817
       ...           ...                  ...                  ...
       358        1.9297           -0.3857615             -10.4971
       359        1.9267           -0.3857200             -10.4960
       360        1.9257           -0.3857065             -10.4956
       361        1.8471           -0.3849815             -10.4759
       362        1.8196           -0.3848100             -10.4712
       363        1.6227           -0.3840002             -10.4492
       364        1.0923           -0.3827902             -10.4163 (HOMO)
       365        0.9946           -0.3826040             -10.4112 (LUMO)
       366        0.9292           -0.3824795             -10.4078
       367                         -0.3238883              -8.8135
       368                         -0.3004025              -8.1744
       369                         -0.2933402              -7.9822
       ...                                ...                  ...
       677                          1.1132401              30.2928
      -------------------------------------------------------------
                  HL-Gap            0.0001862 Eh            0.0051 eV
             Fermi-level           -0.3826143 Eh          -10.4115 eV

 SCC (total)                   0 d,  0 h,  0 min,  2.310 sec
 SCC setup                      ...        0 min,  0.006 sec (  0.258%)
 Dispersion                     ...        0 min,  0.017 sec (  0.743%)
 classical contributions        ...        0 min,  0.001 sec (  0.045%)
 integral evaluation            ...        0 min,  0.022 sec (  0.952%)
 iterations                     ...        0 min,  2.142 sec ( 92.735%)
 molecular gradient             ...        0 min,  0.118 sec (  5.116%)
 printout                       ...        0 min,  0.003 sec (  0.149%)

         :::::::::::::::::::::::::::::::::::::::::::::::::::::
         ::                     SUMMARY                     ::
         :::::::::::::::::::::::::::::::::::::::::::::::::::::
         :: total energy            -402.863419461937 Eh    ::
         :: total w/o Gsasa/hb      -402.764975723106 Eh    ::
         :: gradient norm              1.579919912791 Eh/a0 ::
         :: HOMO-LUMO gap              0.005066317790 eV    ::
         ::.................................................::
         :: SCC energy              -410.803084765306 Eh    ::
         :: -> isotropic ES            0.857830567542 Eh    ::
         :: -> anisotropic ES          0.125741697934 Eh    ::
         :: -> anisotropic XC          0.319666469842 Eh    ::
         :: -> dispersion             -0.374713421081 Eh    ::
         :: -> Gsolv                  -0.226687506710 Eh    ::
         ::    -> Gelec               -0.128243767879 Eh    ::
         ::    -> Gsasa               -0.086324012501 Eh    ::
         ::    -> Ghb                 -0.017073163908 Eh    ::
         ::    -> Gshift               0.004953437577 Eh    ::
         :: repulsion energy           7.939665303369 Eh    ::
         :: add. restraining           0.000000000000 Eh    ::
         :: total charge               1.000000000000 e     ::
         :::::::::::::::::::::::::::::::::::::::::::::::::::::

           -------------------------------------------------
          |                Property Printout                |
           -------------------------------------------------

    * Orbital Energies and Occupations

         #    Occupation            Energy/Eh            Energy/eV
      -------------------------------------------------------------
         1        2.0000           -0.7710623             -20.9817
       ...           ...                  ...                  ...
       352        2.0000           -0.3993243             -10.8662
       353        2.0000           -0.3964786             -10.7887
       354        2.0000           -0.3961613             -10.7801
       355        1.9999           -0.3922093             -10.6726
       356        1.9684           -0.3865410             -10.5183
       357        1.9441           -0.3859853             -10.5032
       358        1.9297           -0.3857615             -10.4971
       359        1.9267           -0.3857200             -10.4960
       360        1.9257           -0.3857065             -10.4956
       361        1.8471           -0.3849815             -10.4759
       362        1.8196           -0.3848100             -10.4712
       363        1.6227           -0.3840002             -10.4492
       364        1.0923           -0.3827902             -10.4163 (HOMO)
       365        0.9946           -0.3826040             -10.4112 (LUMO)
       366        0.9292           -0.3824795             -10.4078
       367                         -0.3238883              -8.8135
       368                         -0.3004025              -8.1744
       369                         -0.2933402              -7.9822
       370                         -0.2886221              -7.8538
       371                         -0.2619028              -7.1267
       372                         -0.2580271              -7.0213
       373                         -0.2547866              -6.9331
       374                         -0.2497787              -6.7968
       375                         -0.2432303              -6.6186
       ...                                ...                  ...
       677                          1.1132401              30.2928
      -------------------------------------------------------------
                  HL-Gap            0.0001862 Eh            0.0051 eV
             Fermi-level           -0.3826143 Eh          -10.4115 eV

     #   Z          covCN         q      C6AA      α(0)
     1   7 N        2.628    -0.350    29.009     7.999
     2   6 C        3.738    -0.022    21.049     6.547
     3   6 C        2.753     0.275    22.355     7.742
     4   8 O        0.860    -0.486    23.483     6.497
     5   7 N        2.688    -0.160    24.467     7.346
     6   6 C        3.799     0.029    20.084     6.381
     7   6 C        2.752     0.268    22.473     7.763
     8   8 O        0.857    -0.490    23.574     6.510
     9   6 C        3.814    -0.077    21.951     6.668
    10   6 C        3.057     0.007    27.806     8.648
    11   6 C        3.037     0.018    27.565     8.612
    12   6 C        3.129    -0.026    28.449     8.733
    13   7 N        1.930    -0.266    27.758     7.812
    14   6 C        3.083     0.067    26.410     8.425
    15   6 C        2.914    -0.032    28.805     8.801
    16   6 C        2.911    -0.032    28.799     8.800
    17   6 C        2.919    -0.040    29.002     8.831
    18   6 C        2.930    -0.039    28.964     8.826
    19   7 N        2.693    -0.150    24.240     7.312
    20   6 C        3.796     0.021    20.219     6.403
    21   6 C        2.760     0.265    22.532     7.773
    22   8 O        0.858    -0.496    23.695     6.526
    23   6 C        3.809    -0.061    21.671     6.627
    24   6 C        3.807    -0.081    22.032     6.682
    25   6 C        2.687     0.381    20.555     7.420
    26   8 O        0.857    -0.547    24.863     6.685
    27   8 O        0.857    -0.531    24.484     6.634
    28   7 N        2.688    -0.145    24.146     7.298
    29   6 C        3.801     0.013    20.360     6.424
    30   6 C        2.754     0.267    22.488     7.765
    31   8 O        0.858    -0.496    23.703     6.527
    32   6 C        3.823    -0.075    21.909     6.661
    33   6 C        3.798    -0.029    21.102     6.541
    34  16 S        1.956    -0.128   146.430    20.367
    35   6 C        3.750    -0.074    21.983     6.687
    36   7 N        2.690    -0.165    24.562     7.361
    37   6 C        3.791     0.024    20.178     6.397
    38   6 C        2.771     0.192    23.896     8.006
    39   8 O        0.856    -0.338    20.479     6.067
    40   6 C        3.818    -0.077    21.962     6.670
    41   6 C        3.854    -0.013    20.765     6.481
    42   6 C        3.764    -0.115    22.744     6.798
    43   6 C        3.764    -0.126    22.968     6.831
    44   7 N        2.627    -0.349    28.988     7.996
    45   6 C        3.784     0.028    20.117     6.389
    46   6 C        2.764     0.192    23.899     8.006
    47   8 O        0.856    -0.368    21.051     6.151
    48   6 C        3.853    -0.017    20.847     6.494
    49   6 C        3.807    -0.069    21.810     6.648
    50   6 C        3.764    -0.113    22.702     6.792
    51   6 C        3.757    -0.106    22.583     6.775
    52   7 N        2.640    -0.332    28.535     7.934
    53   6 C        3.789     0.042    19.883     6.351
    54   6 C        2.763     0.265    22.523     7.772
    55   8 O        0.858    -0.483    23.406     6.486
    56   6 C        3.815    -0.070    21.827     6.649
    57   6 C        3.049     0.006    27.840     8.654
    58   6 C        3.031     0.019    27.548     8.609
    59   6 C        3.121    -0.026    28.465     8.738
    60   7 N        1.919    -0.239    27.080     7.716
    61   6 C        3.077     0.068    26.396     8.423
    62   6 C        2.913    -0.028    28.688     8.783
    63   6 C        2.911    -0.023    28.579     8.766
    64   6 C        2.919    -0.040    28.994     8.830
    65   6 C        2.926    -0.035    28.868     8.811
    66   7 N        2.697    -0.154    24.322     7.325
    67   6 C        3.804     0.014    20.340     6.421
    68   6 C        2.771     0.272    22.413     7.754
    69   8 O        0.859    -0.509    23.976     6.565
    70   6 C        3.852    -0.019    20.885     6.500
    71   6 C        3.760    -0.121    22.871     6.818
    72   6 C        3.753    -0.127    23.000     6.839
    73   7 N        2.689    -0.165    24.577     7.363
    74   6 C        3.804     0.020    20.239     6.405
    75   6 C        2.751     0.269    22.455     7.759
    76   8 O        0.858    -0.495    23.676     6.524
    77   6 C        3.810    -0.077    21.963     6.671
    78   6 C        3.081     0.059    26.600     8.455
    79   7 N        1.985    -0.257    27.488     7.775
    80   6 C        3.052    -0.028    28.640     8.777
    81   6 C        2.103     0.039    29.872     8.831
    82   7 N        2.831    -0.058    22.352     7.022
    83   7 N        2.691    -0.167    24.607     7.367
    84   6 C        3.796     0.019    20.255     6.408
    85   6 C        2.756     0.271    22.429     7.755
    86   8 O        0.859    -0.479    23.327     6.476
    87   6 C        3.809    -0.069    21.810     6.648
    88   6 C        3.804    -0.087    22.153     6.701
    89   6 C        3.802    -0.090    22.215     6.710
    90   6 C        3.733    -0.050    21.561     6.627
    91   7 N        3.485    -0.159    24.438     7.342
    92   7 N        2.690    -0.157    24.404     7.337
    93   6 C        3.792     0.014    20.348     6.424
    94   6 C        2.768     0.201    23.725     7.977
    95   8 O        0.856    -0.346    20.641     6.091
    96   6 C        3.729     0.107    18.919     6.210
    97   8 O        1.652    -0.473    22.315     6.377
    98   6 C        3.756    -0.144    23.338     6.888
    99   7 N        2.636    -0.333    28.578     7.940
   100   6 C        3.791     0.036    19.973     6.365
   101   6 C        2.759     0.265    22.528     7.773
   102   8 O        0.858    -0.484    23.443     6.492
   103   6 C        3.814    -0.079    21.993     6.675
   104   6 C        2.964    -0.003    28.105     8.696
   105   6 C        2.933    -0.054    29.352     8.885
   106   6 C        2.925    -0.046    29.143     8.853
   107   6 C        2.917    -0.070    29.756     8.945
   108   6 C        2.920    -0.061    29.516     8.909
   109   6 C        2.846     0.150    24.740     8.152
   110   8 O        1.660    -0.417    21.189     6.214
   111   7 N        2.692    -0.169    24.654     7.374
   112   6 C        3.799     0.016    20.311     6.417
   113   6 C        2.755     0.267    22.499     7.767
   114   8 O        0.859    -0.492    23.618     6.516
   115   6 C        3.850    -0.018    20.869     6.498
   116   6 C        3.758    -0.119    22.839     6.814
   117   6 C        3.754    -0.119    22.837     6.814
   118   7 N        2.688    -0.159    24.441     7.343
   119   6 C        3.788     0.028    20.121     6.389
   120   6 C        2.765     0.168    24.372     8.085
   121   8 O        0.856    -0.372    21.126     6.162
   122   6 C        3.754    -0.117    22.794     6.808
   123   1 H        0.980     0.003     2.997     2.705
   124   1 H        0.980     0.004     2.982     2.698
   125   1 H        0.980    -0.010     3.226     2.807
   126   1 H        0.980    -0.001     3.063     2.735
   127   1 H        0.980    -0.016     3.348     2.859
   128   1 H        0.980     0.028     2.603     2.521
   129   1 H        0.980    -0.015     3.328     2.850
   130   1 H        0.980     0.003     3.000     2.707
   131   1 H        0.980     0.003     3.001     2.707
   132   1 H        0.980     0.009     2.896     2.659
   133   1 H        0.980    -0.015     3.323     2.848
   134   1 H        0.980    -0.019     3.390     2.877
   135   1 H        0.980     0.042     2.420     2.431
   136   1 H        0.980     0.013     2.831     2.629
   137   1 H        0.980    -0.012     3.272     2.826
   138   1 H        0.980     0.019     2.739     2.586
   139   1 H        0.980    -0.004     3.115     2.758
   140   1 H        0.980     0.001     3.037     2.723
   141   1 H        0.980     0.001     3.037     2.723
   142   1 H        0.980     0.004     2.972     2.694
   143   1 H        0.980     0.004     2.978     2.697
   144   1 H        0.980    -0.010     3.236     2.811
   145   1 H        0.980    -0.009     3.201     2.796
   146   1 H        0.980     0.001     3.024     2.717
   147   1 H        0.980    -0.002     3.085     2.745
   148   1 H        0.980    -0.015     3.317     2.846
   149   1 H        0.980     0.006     2.953     2.685
   150   1 H        0.980    -0.002     3.088     2.746
   151   1 H        0.980     0.001     3.036     2.723
   152   1 H        0.980    -0.008     3.193     2.792
   153   1 H        0.860     0.180     1.213     1.725
   154   1 H        0.860     0.163     1.316     1.797
   155   1 H        0.927     0.045     2.383     2.414
   156   1 H        0.926     0.080     1.977     2.199
   157   1 H        0.861     0.199     1.110     1.650
   158   1 H        0.926     0.079     1.992     2.207
   159   1 H        0.927     0.088     1.900     2.155
   160   1 H        0.926     0.072     2.065     2.247
   161   1 H        0.929     0.041     2.429     2.437
   162   1 H        0.929     0.052     2.295     2.369
   163   1 H        0.929     0.065     2.142     2.289
   164   1 H        0.929     0.052     2.300     2.372
   165   1 H        0.929     0.057     2.228     2.334
   166   1 H        0.861     0.230     0.965     1.539
   167   1 H        0.926     0.084     1.943     2.180
   168   1 H        0.927     0.057     2.238     2.339
   169   1 H        0.927     0.066     2.132     2.283
   170   1 H        0.927     0.075     2.036     2.231
   171   1 H        0.927     0.067     2.120     2.277
   172   1 H        0.861     0.212     1.049     1.604
   173   1 H        0.927     0.103     1.760     2.074
   174   1 H        0.927     0.073     2.051     2.240
   175   1 H        0.927     0.066     2.128     2.281
   176   1 H        0.927     0.082     1.954     2.186
   177   1 H        0.927     0.072     2.059     2.244
   178   1 H        0.927     0.077     2.010     2.217
   179   1 H        0.927     0.070     2.090     2.261
   180   1 H        0.927     0.066     2.129     2.282
   181   1 H        0.861     0.238     0.929     1.510
   182   1 H        0.926     0.093     1.851     2.127
   183   1 H        0.929     0.071     2.078     2.254
   184   1 H        0.927     0.065     2.144     2.290
   185   1 H        0.927     0.065     2.144     2.290
   186   1 H        0.927     0.041     2.432     2.439
   187   1 H        0.927     0.044     2.399     2.422
   188   1 H        0.927     0.039     2.463     2.454
   189   1 H        0.927     0.035     2.523     2.484
   190   1 H        0.927     0.052     2.296     2.369
   191   1 H        0.927     0.044     2.392     2.419
   192   1 H        0.927     0.040     2.451     2.448
   193   1 H        0.860     0.166     1.297     1.784
   194   1 H        0.860     0.174     1.248     1.750
   195   1 H        0.927     0.058     2.220     2.330
   196   1 H        0.929     0.069     2.099     2.266
   197   1 H        0.927     0.051     2.303     2.373
   198   1 H        0.927     0.039     2.463     2.454
   199   1 H        0.927     0.052     2.299     2.371
   200   1 H        0.927     0.046     2.369     2.407
   201   1 H        0.926     0.049     2.328     2.386
   202   1 H        0.927     0.050     2.325     2.384
   203   1 H        0.927     0.039     2.462     2.454
   204   1 H        0.927     0.040     2.452     2.449
   205   1 H        0.926     0.036     2.507     2.476
   206   1 H        0.860     0.164     1.311     1.794
   207   1 H        0.860     0.174     1.247     1.749
   208   1 H        0.927     0.022     2.702     2.570
   209   1 H        0.927     0.087     1.907     2.160
   210   1 H        0.927     0.068     2.111     2.272
   211   1 H        0.929     0.042     2.416     2.430
   212   1 H        0.929     0.053     2.284     2.363
   213   1 H        0.929     0.077     2.008     2.216
   214   1 H        0.929     0.058     2.220     2.330
   215   1 H        0.929     0.062     2.181     2.309
   216   1 H        0.861     0.202     1.094     1.638
   217   1 H        0.927     0.091     1.874     2.141
   218   1 H        0.927     0.044     2.395     2.420
   219   1 H        0.927     0.049     2.326     2.385
   220   1 H        0.927     0.042     2.421     2.433
   221   1 H        0.927     0.054     2.269     2.356
   222   1 H        0.926     0.052     2.300     2.372
   223   1 H        0.926     0.053     2.288     2.365
   224   1 H        0.927     0.041     2.430     2.437
   225   1 H        0.861     0.234     0.949     1.526
   226   1 H        0.927     0.091     1.872     2.139
   227   1 H        0.927     0.087     1.907     2.160
   228   1 H        0.926     0.095     1.830     2.116
   229   1 H        0.929     0.062     2.179     2.308
   230   1 H        0.861     0.229     0.968     1.541
   231   1 H        0.927     0.072     2.065     2.247
   232   1 H        0.927     0.059     2.205     2.322
   233   1 H        0.927     0.066     2.131     2.283
   234   1 H        0.927     0.057     2.239     2.340
   235   1 H        0.927     0.062     2.176     2.307
   236   1 H        0.927     0.095     1.829     2.115
   237   1 H        0.927     0.063     2.164     2.300
   238   1 H        0.927     0.116     1.644     2.005
   239   1 H        0.927     0.119     1.618     1.989
   240   1 H        0.861     0.211     1.050     1.605
   241   1 H        0.927     0.097     1.816     2.107
   242   1 H        0.929     0.078     2.004     2.214
   243   1 H        0.927     0.073     2.055     2.242
   244   1 H        0.804     0.326     0.647     1.263
   245   1 H        0.927     0.061     2.191     2.315
   246   1 H        0.927     0.068     2.110     2.271
   247   1 H        0.926     0.072     2.060     2.245
   248   1 H        0.860     0.167     1.290     1.779
   249   1 H        0.860     0.175     1.241     1.745
   250   1 H        0.927     0.034     2.531     2.488
   251   1 H        0.927     0.068     2.105     2.269
   252   1 H        0.927     0.065     2.143     2.289
   253   1 H        0.929     0.054     2.276     2.359
   254   1 H        0.929     0.054     2.274     2.358
   255   1 H        0.929     0.056     2.241     2.341
   256   1 H        0.929     0.061     2.185     2.312
   257   1 H        0.809     0.338     0.615     1.232
   258   1 H        0.861     0.221     1.004     1.570
   259   1 H        0.927     0.074     2.040     2.233
   260   1 H        0.927     0.049     2.337     2.391
   261   1 H        0.926     0.047     2.354     2.399
   262   1 H        0.927     0.037     2.487     2.466
   263   1 H        0.927     0.053     2.281     2.362
   264   1 H        0.927     0.051     2.309     2.376
   265   1 H        0.927     0.050     2.321     2.382
   266   1 H        0.926     0.043     2.414     2.430
   267   1 H        0.861     0.213     1.041     1.598
   268   1 H        0.927     0.107     1.721     2.051
   269   1 H        0.929     0.105     1.741     2.063
   270   1 H        0.927     0.061     2.185     2.312
   271   1 H        0.927     0.082     1.956     2.187
   272   1 H        0.927     0.059     2.211     2.325
   273   1 H        0.980    -0.003     3.103     2.752
   274   1 H        0.980    -0.001     3.064     2.735
   275   1 H        0.980     0.010     2.884     2.654
   276   1 H        0.980     0.001     3.037     2.723
   277   1 H        0.980     0.014     2.815     2.622
   278   1 H        0.980    -0.014     3.301     2.839
   279   1 H        0.980     0.003     2.996     2.705
   280   1 H        0.980     0.004     2.978     2.697
   281   1 H        0.980    -0.002     3.091     2.747
   282   1 H        0.980    -0.008     3.186     2.789
   283   1 H        0.980     0.015     2.799     2.614
   284   1 H        0.980     0.021     2.716     2.575
   285   1 H        0.980    -0.014     3.304     2.840
   286   1 H        0.980    -0.012     3.261     2.822
   287   1 H        0.980     0.010     2.880     2.652
   288   1 H        0.980    -0.016     3.342     2.857
   289   1 H        0.980     0.004     2.978     2.696
   290   1 H        0.980    -0.001     3.074     2.740
   291   1 H        0.980    -0.002     3.081     2.743
   292   1 H        0.980    -0.004     3.123     2.761
   293   1 H        0.980    -0.002     3.076     2.741
   294   1 H        0.980     0.010     2.887     2.655
   295   1 H        0.980     0.009     2.898     2.660
   296   1 H        0.980     0.001     3.024     2.717
   297   1 H        0.980     0.001     3.030     2.720
   298   1 H        0.980     0.017     2.774     2.602
   299   1 H        0.980    -0.009     3.210     2.800
   300   1 H        0.980    -0.006     3.162     2.779
   301   1 H        0.980    -0.011     3.245     2.815
   302   1 H        0.980     0.029     2.596     2.517
   303   1 H        0.860     0.287     0.753     1.360
   304   1 H        0.860     0.302     0.706     1.316
   305   1 H        0.860     0.301     0.711     1.321
   306   1 H        0.858     0.194     1.137     1.670

 Mol. C6AA /au·bohr⁶  :     768547.966063
 Mol. C8AA /au·bohr⁸  :   16556536.390842
 Mol. α(0) /au        :       1335.655936


Wiberg/Mayer (AO) data.
largest (>0.10) Wiberg bond orders for each atom

 ---------------------------------------------------------------------------
     #   Z sym  total        # sym  WBO       # sym  WBO       # sym  WBO
 ---------------------------------------------------------------------------
     1   7 N    2.967 --     2 C    1.017   154 H    0.959   153 H    0.953
     2   6 C    3.976 --     1 N    1.017   156 H    0.972   155 H    0.953
                             3 C    0.953
     3   6 C    3.945 --     4 O    1.636     5 N    1.303     2 C    0.953
     4   8 O    1.942 --     3 C    1.636     5 N    0.194
     5   7 N    3.470 --     3 C    1.303     6 C    0.977   157 H    0.929
                             4 O    0.194
     6   6 C    3.947 --     5 N    0.977     9 C    0.959   158 H    0.951
                             7 C    0.930
     7   6 C    3.949 --     8 O    1.627    19 N    1.318     6 C    0.930
     8   8 O    1.935 --     7 C    1.627    19 N    0.198
     9   6 C    3.979 --    10 C    1.026   160 H    0.970     6 C    0.959
                           159 H    0.943
    10   6 C    3.708 --    11 C    1.446    12 C    1.137     9 C    1.026
    11   6 C    3.960 --    10 C    1.446    13 N    1.365   161 H    0.970
    12   6 C    3.949 --    15 C    1.379    14 C    1.237    10 C    1.137
    13   7 N    2.690 --    11 C    1.365    14 C    1.217
    14   6 C    3.966 --    16 C    1.342    12 C    1.237    13 N    1.217
    15   6 C    3.897 --    17 C    1.413    12 C    1.379   162 H    0.967
    16   6 C    3.882 --    18 C    1.434    14 C    1.342   163 H    0.967
    17   6 C    3.924 --    15 C    1.413    18 C    1.405   164 H    0.972
    18   6 C    3.945 --    16 C    1.434    17 C    1.405   165 H    0.968
    19   7 N    3.487 --     7 C    1.318    20 C    0.981   166 H    0.909
                             8 O    0.198
    20   6 C    3.957 --    19 N    0.981    23 C    0.966   167 H    0.954
                            21 C    0.942
    21   6 C    3.947 --    22 O    1.585    28 N    1.337    20 C    0.942
    22   8 O    1.930 --    21 C    1.585    28 N    0.193
    23   6 C    3.983 --    24 C    1.002   168 H    0.976   169 H    0.973
                            20 C    0.966
    24   6 C    3.848 --    23 C    1.002   170 H    0.963   171 H    0.956
                            25 C    0.870
    25   6 C    3.906 --    27 O    1.508    26 O    1.505    24 C    0.870
    26   8 O    1.767 --    25 C    1.505    27 O    0.221
    27   8 O    1.770 --    25 C    1.508    26 O    0.221
    28   7 N    3.501 --    21 C    1.337    29 C    0.979   172 H    0.924
                            22 O    0.193
    29   6 C    3.955 --    28 N    0.979    32 C    0.970   173 H    0.942
                            30 C    0.937
    30   6 C    3.954 --    31 O    1.623    36 N    1.323    29 C    0.937
    31   8 O    1.941 --    30 C    1.623    36 N    0.204
    32   6 C    3.982 --    33 C    1.000    29 C    0.970   174 H    0.966
                           175 H    0.963
    33   6 C    3.970 --    32 C    1.000    34 S    0.992   177 H    0.968
                           176 H    0.953
    34  16 S    2.079 --    35 C    1.011    33 C    0.992
    35   6 C    3.968 --    34 S    1.011   179 H    0.979   178 H    0.978
                           180 H    0.969
    36   7 N    3.486 --    30 C    1.323    37 C    0.974   181 H    0.893
                            31 O    0.204
    37   6 C    3.967 --    38 C    0.992    36 N    0.974    40 C    0.950
                           182 H    0.944
    38   6 C    3.912 --    39 O    1.908    37 C    0.992   183 H    0.947
    39   8 O    2.061 --    38 C    1.908
    40   6 C    3.984 --    41 C    0.989   185 H    0.973   184 H    0.970
                            37 C    0.950
    41   6 C    3.995 --    42 C    1.011    43 C    1.006    40 C    0.989
                           186 H    0.969
    42   6 C    3.996 --    41 C    1.011   189 H    0.985   187 H    0.983
                           188 H    0.981
    43   6 C    3.993 --    41 C    1.006   192 H    0.986   191 H    0.985
                           190 H    0.977
    44   7 N    2.964 --    45 C    1.006   193 H    0.959   194 H    0.952
    45   6 C    3.974 --    44 N    1.006    46 C    0.997   195 H    0.948
                            48 C    0.935
    46   6 C    3.903 --    47 O    1.885    45 C    0.997   196 H    0.950
    47   8 O    2.038 --    46 C    1.885
    48   6 C    3.985 --    50 C    1.013    49 C    0.991   197 H    0.955
                            45 C    0.935
    49   6 C    3.995 --    51 C    1.018    48 C    0.991   198 H    0.979
                           199 H    0.978
    50   6 C    3.995 --    48 C    1.013   201 H    0.981   202 H    0.976
                           200 H    0.975
    51   6 C    3.996 --    49 C    1.018   204 H    0.986   205 H    0.983
                           203 H    0.981
    52   7 N    3.007 --    53 C    1.018   206 H    0.954   207 H    0.952
    53   6 C    3.959 --    52 N    1.018   208 H    0.956    56 C    0.946
                            54 C    0.938
    54   6 C    3.948 --    55 O    1.612    66 N    1.322    53 C    0.938
    55   8 O    1.955 --    54 C    1.612    66 N    0.196
    56   6 C    3.977 --    57 C    1.040   210 H    0.963   209 H    0.947
                            53 C    0.946
    57   6 C    3.710 --    58 C    1.405    59 C    1.149    56 C    1.040
    58   6 C    3.957 --    57 C    1.405    60 N    1.399   211 H    0.970
    59   6 C    3.956 --    62 C    1.390    61 C    1.232    57 C    1.149
    60   7 N    2.727 --    58 C    1.399    61 C    1.207
    61   6 C    3.963 --    63 C    1.352    59 C    1.232    60 N    1.207
    62   6 C    3.885 --    59 C    1.390    64 C    1.384   212 H    0.969
    63   6 C    3.876 --    65 C    1.410    61 C    1.352   213 H    0.964
    64   6 C    3.930 --    65 C    1.436    62 C    1.384   214 H    0.973
    65   6 C    3.938 --    64 C    1.436    63 C    1.410   215 H    0.971
    66   7 N    3.497 --    54 C    1.322    67 C    0.973   216 H    0.925
                            55 O    0.196
    67   6 C    3.957 --    66 N    0.973    70 C    0.960   217 H    0.950
                            68 C    0.942
    68   6 C    3.951 --    69 O    1.598    73 N    1.328    67 C    0.942
    69   8 O    1.933 --    68 C    1.598    73 N    0.200
    70   6 C    3.989 --    71 C    1.012    72 C    0.998   218 H    0.970
                            67 C    0.960
    71   6 C    3.993 --    70 C    1.012   221 H    0.981   220 H    0.980
                           219 H    0.977
    72   6 C    3.992 --    70 C    0.998   224 H    0.987   223 H    0.986
                           222 H    0.980
    73   7 N    3.489 --    68 C    1.328    74 C    0.983   225 H    0.893
                            69 O    0.200
    74   6 C    3.960 --    73 N    0.983    77 C    0.960    75 C    0.949
                           226 H    0.936
    75   6 C    3.953 --    76 O    1.613    83 N    1.321    74 C    0.949
    76   8 O    1.939 --    75 C    1.613    83 N    0.196
    77   6 C    3.981 --    78 C    1.013    74 C    0.960   228 H    0.952
                           227 H    0.951
    78   6 C    3.901 --    80 C    1.568    79 N    1.190    77 C    1.013
    79   7 N    3.063 --    81 C    1.605    78 C    1.190
    80   6 C    3.898 --    78 C    1.568    82 N    1.171   229 H    0.964
                            81 C    0.115
    81   6 C    3.136 --    79 N    1.605    82 N    1.323    80 C    0.115
    82   7 N    3.567 --    81 C    1.323    80 C    1.171   306 H    0.928
    83   7 N    3.477 --    75 C    1.321    84 C    0.973   230 H    0.901
                            76 O    0.196
    84   6 C    3.966 --    83 N    0.973    87 C    0.964   231 H    0.953
                            85 C    0.949
    85   6 C    3.949 --    86 O    1.635    92 N    1.297    84 C    0.949
    86   8 O    1.967 --    85 C    1.635    92 N    0.194
    87   6 C    3.988 --    88 C    1.007   232 H    0.975   233 H    0.970
                            84 C    0.964
    88   6 C    3.993 --    87 C    1.007    89 C    1.003   234 H    0.974
                           235 H    0.973
    89   6 C    3.985 --    90 C    1.012    88 C    1.003   237 H    0.968
                           236 H    0.961
    90   6 C    3.908 --    89 C    1.012   239 H    0.968   238 H    0.968
                            91 N    0.940
    91   7 N    3.657 --    90 C    0.940   305 H    0.899   303 H    0.897
                           304 H    0.895
    92   7 N    3.471 --    85 C    1.297    93 C    0.982   240 H    0.915
                            86 O    0.194
    93   6 C    3.968 --    92 N    0.982    94 C    0.977   241 H    0.940
                            96 C    0.933
    94   6 C    3.901 --    95 O    1.898    93 C    0.977   242 H    0.947
    95   8 O    2.058 --    94 C    1.898
    96   6 C    3.951 --    98 C    0.995    97 O    0.993   243 H    0.962
                            93 C    0.933
    97   8 O    1.948 --    96 C    0.993   244 H    0.869
    98   6 C    3.986 --    96 C    0.995   245 H    0.982   247 H    0.978
                           246 H    0.973
    99   7 N    2.977 --   100 C    1.018   248 H    0.956   249 H    0.952
   100   6 C    3.971 --    99 N    1.018   103 C    0.960   250 H    0.946
                           101 C    0.945
   101   6 C    3.947 --   102 O    1.637   111 N    1.300   100 C    0.945
   102   8 O    1.943 --   101 C    1.637   111 N    0.199
   103   6 C    3.985 --   104 C    1.009   251 H    0.974   100 C    0.960
                           252 H    0.959
   104   6 C    3.942 --   106 C    1.395   105 C    1.394   103 C    1.009
   105   6 C    3.981 --   107 C    1.455   104 C    1.394   253 H    0.958
                           108 C    0.103
   106   6 C    3.984 --   108 C    1.467   104 C    1.395   254 H    0.970
   107   6 C    3.964 --   105 C    1.455   109 C    1.354   255 H    0.966
   108   6 C    3.960 --   106 C    1.467   109 C    1.330   256 H    0.970
                           105 C    0.103
   109   6 C    3.908 --   107 C    1.354   108 C    1.330   110 O    1.101
   110   8 O    2.085 --   109 C    1.101   257 H    0.795
   111   7 N    3.474 --   101 C    1.300   112 C    0.984   258 H    0.907
                           102 O    0.199
   112   6 C    3.966 --   111 N    0.984   115 C    0.957   259 H    0.956
                           113 C    0.939
   113   6 C    3.950 --   114 O    1.607   118 N    1.324   112 C    0.939
   114   8 O    1.947 --   113 C    1.607   118 N    0.197
   115   6 C    3.989 --   116 C    1.007   117 C    1.001   260 H    0.971
                           112 C    0.957
   116   6 C    3.994 --   115 C    1.007   261 H    0.986   262 H    0.983
                           263 H    0.981
   117   6 C    3.993 --   115 C    1.001   264 H    0.987   266 H    0.987
                           265 H    0.986
   118   7 N    3.489 --   113 C    1.324   119 C    0.972   267 H    0.923
                           114 O    0.197
   119   6 C    3.959 --   120 C    0.994   118 N    0.972   122 C    0.955
                           268 H    0.940
   120   6 C    3.883 --   121 O    1.885   119 C    0.994   269 H    0.874
   121   8 O    2.035 --   120 C    1.885
   122   6 C    3.982 --   270 H    0.987   272 H    0.982   271 H    0.974
                           119 C    0.955
   123   1 H    1.000 --   273 H    0.995
   124   1 H    1.000 --   274 H    0.989
   125   1 H    0.999 --   275 H    0.988
   126   1 H    1.000 --   276 H    0.997
   127   1 H    1.000 --   277 H    0.936
   128   1 H    0.999 --   278 H    0.909
   129   1 H    1.000 --   279 H    0.960
   130   1 H    1.000 --   280 H    0.979
   131   1 H    1.000 --   281 H    0.995
   132   1 H    1.000 --   282 H    0.971
   133   1 H    1.000 --   283 H    0.982
   134   1 H    1.000 --   284 H    0.974
   135   1 H    0.998 --   285 H    0.913
   136   1 H    1.000 --   286 H    0.987
   137   1 H    1.000 --   287 H    0.957
   138   1 H    1.000 --   288 H    0.940
   139   1 H    1.000 --   289 H    0.994
   140   1 H    1.000 --   290 H    0.982
   141   1 H    1.000 --   291 H    0.975
   142   1 H    1.000 --   292 H    0.994
   143   1 H    1.000 --   293 H    0.978
   144   1 H    1.000 --   294 H    0.976
   145   1 H    1.000 --   295 H    0.987
   146   1 H    1.000 --   296 H    0.976
   147   1 H    0.999 --   297 H    0.968
   148   1 H    1.000 --   298 H    0.959
   149   1 H    1.000 --   299 H    0.960
   150   1 H    0.999 --   300 H    0.934
   151   1 H    1.000 --   301 H    0.944
   152   1 H    1.000 --   302 H    0.880
   153   1 H    0.965 --     1 N    0.953
   154   1 H    0.973 --     1 N    0.959
   155   1 H    0.988 --     2 C    0.953
   156   1 H    0.992 --     2 C    0.972
   157   1 H    0.960 --     5 N    0.929
   158   1 H    0.994 --     6 C    0.951
   159   1 H    0.977 --     9 C    0.943
   160   1 H    0.994 --     9 C    0.970
   161   1 H    0.997 --    11 C    0.970
   162   1 H    0.996 --    15 C    0.967
   163   1 H    0.994 --    16 C    0.967
   164   1 H    0.997 --    17 C    0.972
   165   1 H    0.996 --    18 C    0.968
   166   1 H    0.947 --    19 N    0.909
   167   1 H    0.993 --    20 C    0.954
   168   1 H    0.996 --    23 C    0.976
   169   1 H    0.994 --    23 C    0.973
   170   1 H    0.992 --    24 C    0.963
   171   1 H    0.992 --    24 C    0.956
   172   1 H    0.955 --    28 N    0.924
   173   1 H    0.989 --    29 C    0.942
   174   1 H    0.994 --    32 C    0.966
   175   1 H    0.995 --    32 C    0.963
   176   1 H    0.993 --    33 C    0.953
   177   1 H    0.987 --    33 C    0.968
   178   1 H    0.994 --    35 C    0.978
   179   1 H    0.989 --    35 C    0.979
   180   1 H    0.990 --    35 C    0.969
   181   1 H    0.943 --    36 N    0.893
   182   1 H    0.991 --    37 C    0.944
   183   1 H    0.994 --    38 C    0.947
   184   1 H    0.995 --    40 C    0.970
   185   1 H    0.996 --    40 C    0.973
   186   1 H    0.998 --    41 C    0.969
   187   1 H    0.998 --    42 C    0.983
   188   1 H    0.998 --    42 C    0.981
   189   1 H    0.998 --    42 C    0.985
   190   1 H    0.997 --    43 C    0.977
   191   1 H    0.997 --    43 C    0.985
   192   1 H    0.998 --    43 C    0.986
   193   1 H    0.971 --    44 N    0.959
   194   1 H    0.968 --    44 N    0.952
   195   1 H    0.984 --    45 C    0.948
   196   1 H    0.995 --    46 C    0.950
   197   1 H    0.997 --    48 C    0.955
   198   1 H    0.998 --    49 C    0.979
   199   1 H    0.997 --    49 C    0.978
   200   1 H    0.998 --    50 C    0.975
   201   1 H    0.998 --    50 C    0.981
   202   1 H    0.997 --    50 C    0.976
   203   1 H    0.998 --    51 C    0.981
   204   1 H    0.998 --    51 C    0.986
   205   1 H    0.999 --    51 C    0.983
   206   1 H    0.969 --    52 N    0.954
   207   1 H    0.969 --    52 N    0.952
   208   1 H    0.992 --    53 C    0.956
   209   1 H    0.977 --    56 C    0.947
   210   1 H    0.992 --    56 C    0.963
   211   1 H    0.997 --    58 C    0.970
   212   1 H    0.995 --    62 C    0.969
   213   1 H    0.992 --    63 C    0.964
   214   1 H    0.996 --    64 C    0.973
   215   1 H    0.996 --    65 C    0.971
   216   1 H    0.959 --    66 N    0.925
   217   1 H    0.992 --    67 C    0.950
   218   1 H    0.998 --    70 C    0.970
   219   1 H    0.998 --    71 C    0.977
   220   1 H    0.998 --    71 C    0.980
   221   1 H    0.996 --    71 C    0.981
   222   1 H    0.997 --    72 C    0.980
   223   1 H    0.997 --    72 C    0.986
   224   1 H    0.998 --    72 C    0.987
   225   1 H    0.945 --    73 N    0.893
   226   1 H    0.990 --    74 C    0.936
   227   1 H    0.992 --    77 C    0.951
   228   1 H    0.989 --    77 C    0.952
   229   1 H    0.996 --    80 C    0.964
   230   1 H    0.947 --    83 N    0.901
   231   1 H    0.995 --    84 C    0.953
   232   1 H    0.996 --    87 C    0.975
   233   1 H    0.995 --    87 C    0.970
   234   1 H    0.997 --    88 C    0.974
   235   1 H    0.996 --    88 C    0.973
   236   1 H    0.991 --    89 C    0.961
   237   1 H    0.996 --    89 C    0.968
   238   1 H    0.986 --    90 C    0.968
   239   1 H    0.986 --    90 C    0.968
   240   1 H    0.955 --    92 N    0.915
   241   1 H    0.991 --    93 C    0.940
   242   1 H    0.994 --    94 C    0.947
   243   1 H    0.994 --    96 C    0.962
   244   1 H    0.893 --    97 O    0.869
   245   1 H    0.996 --    98 C    0.982
   246   1 H    0.995 --    98 C    0.973
   247   1 H    0.993 --    98 C    0.978
   248   1 H    0.970 --    99 N    0.956
   249   1 H    0.967 --    99 N    0.952
   250   1 H    0.983 --   100 C    0.946
   251   1 H    0.994 --   103 C    0.974
   252   1 H    0.991 --   103 C    0.959
   253   1 H    0.997 --   105 C    0.958
   254   1 H    0.996 --   106 C    0.970
   255   1 H    0.996 --   107 C    0.966
   256   1 H    0.996 --   108 C    0.970
   257   1 H    0.885 --   110 O    0.795
   258   1 H    0.951 --   111 N    0.907
   259   1 H    0.994 --   112 C    0.956
   260   1 H    0.998 --   115 C    0.971
   261   1 H    0.998 --   116 C    0.986
   262   1 H    0.999 --   116 C    0.983
   263   1 H    0.997 --   116 C    0.981
   264   1 H    0.997 --   117 C    0.987
   265   1 H    0.997 --   117 C    0.986
   266   1 H    0.998 --   117 C    0.987
   267   1 H    0.954 --   118 N    0.923
   268   1 H    0.988 --   119 C    0.940
   269   1 H    0.988 --   120 C    0.874
   270   1 H    0.996 --   122 C    0.987
   271   1 H    0.993 --   122 C    0.974
   272   1 H    0.996 --   122 C    0.982
   273   1 H    1.000 --   123 H    0.995
   274   1 H    1.000 --   124 H    0.989
   275   1 H    1.000 --   125 H    0.988
   276   1 H    1.000 --   126 H    0.997
   277   1 H    1.000 --   127 H    0.936
   278   1 H    1.000 --   128 H    0.909
   279   1 H    1.000 --   129 H    0.960
   280   1 H    1.000 --   130 H    0.979
   281   1 H    1.000 --   131 H    0.995
   282   1 H    1.000 --   132 H    0.971
   283   1 H    1.000 --   133 H    0.982
   284   1 H    1.000 --   134 H    0.974
   285   1 H    1.000 --   135 H    0.913
   286   1 H    1.000 --   136 H    0.987
   287   1 H    1.000 --   137 H    0.957
   288   1 H    1.000 --   138 H    0.940
   289   1 H    1.000 --   139 H    0.994
   290   1 H    1.000 --   140 H    0.982
   291   1 H    1.000 --   141 H    0.975
   292   1 H    1.000 --   142 H    0.994
   293   1 H    1.000 --   143 H    0.978
   294   1 H    1.000 --   144 H    0.976
   295   1 H    1.000 --   145 H    0.987
   296   1 H    1.000 --   146 H    0.976
   297   1 H    0.999 --   147 H    0.968
   298   1 H    1.000 --   148 H    0.959
   299   1 H    1.000 --   149 H    0.960
   300   1 H    0.999 --   150 H    0.934
   301   1 H    1.000 --   151 H    0.944
   302   1 H    0.999 --   152 H    0.880
   303   1 H    0.918 --    91 N    0.897
   304   1 H    0.909 --    91 N    0.895
   305   1 H    0.910 --    91 N    0.899
   306   1 H    0.962 --    82 N    0.928
 ---------------------------------------------------------------------------

Topologies differ in total number of bonds
Writing topology from bond orders to xtbtopo.mol

molecular dipole:
                 x           y           z       tot (Debye)
 q only:       59.037       2.167      47.957
   full:       60.483       2.491      48.328     196.883
molecular quadrupole (traceless):
                xx          xy          yy          xz          yz          zz
 q only:     2332.011     136.182   -3079.007    4342.448     158.670     746.996
  q+dip:     2505.051     171.235   -3192.786    4495.396     182.095     687.735
   full:     2494.704     164.702   -3190.143    4495.979     185.029     695.439


           -------------------------------------------------
          | TOTAL ENERGY             -402.863419461937 Eh   |
          | GRADIENT NORM               1.579919912791 Eh/α |
          | HOMO-LUMO GAP               0.005066317790 eV   |
           -------------------------------------------------
########################################################################
[WARNING] Runtime exception occurred
-3- restart_readRestart: Dimension missmatch in restart file.
-2- restart_readRestart: Multiplicity missmatch in restart file.
-1- restart_readRestart: Number of electron missmatch in restart file.
########################################################################

------------------------------------------------------------------------
 * finished run on 2025/05/05 at 17:13:30.333     
------------------------------------------------------------------------
 total:
 * wall-time:     0 d,  0 h,  0 min,  2.350 sec
 *  cpu-time:     0 d,  0 h,  1 min, 13.899 sec
 * ratio c/w:    31.447 speedup
 SCF:
 * wall-time:     0 d,  0 h,  0 min,  2.313 sec
 *  cpu-time:     0 d,  0 h,  1 min, 12.873 sec
 * ratio c/w:    31.511 speedup

