      -----------------------------------------------------------      
     |                   =====================                   |     
     |                           x T B                           |     
     |                   =====================                   |     
     |                         S. Grimme                         |     
     |          Mulliken Center for Theoretical Chemistry        |     
     |                    University of Bonn                     |     
      -----------------------------------------------------------      

   * xtb version 6.7.1 (edcfbbe) compiled by 'conda@afd1a870197c' on 2025-04-11

   xtb is free software: you can redistribute it and/or modify it under
   the terms of the GNU Lesser General Public License as published by
   the Free Software Foundation, either version 3 of the License, or
   (at your option) any later version.
   
   xtb is distributed in the hope that it will be useful,
   but WITHOUT ANY WARRANTY; without even the implied warranty of
   MERCHANTABILITY or FITNESS FOR A PARTICULAR PURPOSE.  See the
   GNU Lesser General Public License for more details.
   
   Cite this work as:
   * C. Bannwarth, E. Caldeweyher, S. Ehlert, A. Hansen, P. Pracht,
     J. Seibert, S. Spicher, S. Grimme, WIREs Comput. Mol. Sci., 2020, 11,
     e01493. DOI: 10.1002/wcms.1493
   
   for GFN2-xTB:
   * C. Bannwarth, S. Ehlert and S. Grimme., J. Chem. Theory Comput., 2019,
     15, 1652-1671. DOI: 10.1021/acs.jctc.8b01176
   for GFN1-xTB:
   * S. Grimme, C. Bannwarth, P. Shushkov, J. Chem. Theory Comput., 2017,
     13, 1989-2009. DOI: 10.1021/acs.jctc.7b00118
   for GFN0-xTB:
   * P. Pracht, E. Caldeweyher, S. Ehlert, S. Grimme, ChemRxiv, 2019, preprint.
     DOI: 10.26434/chemrxiv.8326202.v1
   for GFN-FF:
   * S. Spicher and S. Grimme, Angew. Chem. Int. Ed., 2020, 59, 15665-15673.
     DOI: 10.1002/anie.202004239
   
   for ALPB and GBSA implicit solvation:
   * S. Ehlert, M. Stahn, S. Spicher, S. Grimme, J. Chem. Theory Comput.,
     2021, 17, 4250-4261. DOI: 10.1021/acs.jctc.1c00471
   
   for ddCOSMO and CPCM-X implicit solvation:
   * M. Stahn, S. Ehlert, S. Grimme, J. Phys. Chem. A,
     2023, XX, XXXX-XXXX. DOI: 10.1021/acs.jpca.3c04382
   
   for DFT-D4:
   * E. Caldeweyher, C. Bannwarth and S. Grimme, J. Chem. Phys., 2017,
     147, 034112. DOI: 10.1063/1.4993215
   * E. Caldeweyher, S. Ehlert, A. Hansen, H. Neugebauer, S. Spicher,
     C. Bannwarth and S. Grimme, J. Chem. Phys., 2019, 150, 154122.
     DOI: 10.1063/1.5090222
   * E. Caldeweyher, J.-M. Mewes, S. Ehlert and S. Grimme, Phys. Chem. Chem. Phys.
     2020, 22, 8499-8512. DOI: 10.1039/D0CP00502A
   
   for sTDA-xTB:
   * S. Grimme and C. Bannwarth, J. Chem. Phys., 2016, 145, 054103.
     DOI: 10.1063/1.4959605
   
   in the mass-spec context:
   * V. Asgeirsson, C. Bauer and S. Grimme, Chem. Sci., 2017, 8, 4879.
     DOI: 10.1039/c7sc00601b
   * J. Koopman and S. Grimme, ACS Omega 2019, 4, 12, 15120-15133.
     DOI: 10.1021/acsomega.9b02011
   
   for metadynamics refer to:
   * S. Grimme, J. Chem. Theory Comput., 2019, 155, 2847-2862
     DOI: 10.1021/acs.jctc.9b00143
   
   for SPH calculations refer to:
   * S. Spicher and S. Grimme, J. Chem. Theory Comput., 2021, 17, 1701-1714
     DOI: 10.1021/acs.jctc.0c01306
   
   for ONIOM refer to:
   * C. Plett, A. Katbashev, S. Ehlert, S. Grimme, M. Bursch,
     Phys. Chem. Chem. Phys., 2023, 25, 17860-17868. DOI: 10.1039/D3CP02178E
   
   for DIPRO refer to:
   * J. Kohn, N. Gildemeister, S. Grimme, D. Fazzi, A. Hansen,
     J. Chem. Phys., 2023, just accepted.
   
   for PTB refer to:
   * S. Grimme, M. Mueller, A. Hansen, J. Chem. Phys., 2023, 158, 124111.
     DOI: 10.1063/5.0137838
   
   with help from (in alphabetical order)
   P. Atkinson, C. Bannwarth, F. Bohle, G. Brandenburg, E. Caldeweyher
   M. Checinski, S. Dohm, S. Ehlert, S. Ehrlich, I. Gerasimov, C. Hölzer
   A. Katbashev, J. Kohn, J. Koopman, C. Lavigne, S. Lehtola, F. März, M. Müller,
   F. Musil, H. Neugebauer, J. Pisarek, C. Plett, P. Pracht, F. Pultar,
   J. Seibert, P. Shushkov, S. Spicher, M. Stahn, M. Steiner, T. Strunk,
   J. Stückrath, T. Rose, and J. Unsleber
   
 * started run on 2025/05/01 at 18:01:37.748     
   ID    Z sym.   atoms
    1    7 N      1, 12, 19, 26, 32, 35, 36, 44, 51, 53, 54
    2    6 C      2, 3, 5-11, 13, 14, 16-18, 20, 21, 23-25, 27, 28, 30, 31,
                  33, 34, 37, 38, 40-43, 45, 46, 48-50, 52
    3    8 O      4, 15, 22, 29, 39, 47
    4    1 H      55-113

           -------------------------------------------------
          |                Calculation Setup                |
           -------------------------------------------------

          program call               : xtb /tmp/tmpsa_r652v/HID/input.xyz --alpb ether --chrg 2 --input /tmp/tmpsa_r652v/HID/constraints.inp --gfn 2
          hostname                   : fedora
          coordinate file            : /tmp/tmpsa_r652v/HID/input.xyz
          omp threads                :                    32


molecular fragmentation (1/2 indicates fragments):
111111111112222222222222222222222222222222222222222222111111111112222222
22222222222222222222222222222222222222222
# atoms in fragment 1/2:    22    91
 fragment masses (1/2) :      149.19      604.75
CMA distance (Bohr)    :  13.146
constraining FC (au)   :  0.0500
########################################################################
[WARNING] Please study the warnings concerning your input carefully
-1- readin_getIntValue: could not parse 'S'
########################################################################

           -------------------------------------------------
          |                 G F N 2 - x T B                 |
           -------------------------------------------------

        Reference                      10.1021/acs.jctc.8b01176
      * Hamiltonian:
        H0-scaling (s, p, d)           1.850000    2.230000    2.230000
        zeta-weighting                 0.500000
      * Dispersion:
        s8                             2.700000
        a1                             0.520000
        a2                             5.000000
        s9                             5.000000
      * Repulsion:
        kExp                           1.500000    1.000000
        rExp                           1.000000
      * Coulomb:
        alpha                          2.000000
        third order                    shell-resolved
        anisotropic                    true
        a3                             3.000000
        a5                             4.000000
        cn-shift                       1.200000
        cn-exp                         4.000000
        max-rad                        5.000000

      * Solvation model:               ALPB
        Solvent                        ether
        Parameter file                 internal GFN2-xTB/ALPB
        Dielectric constant                4.3300E+00
        Reference state                gsolv [1 M gas/solution]
        Free energy shift                  4.9534E-03 Eh       3.1083E+00 kcal/mol
        Temperature                        2.9815E+02 K
        Density                            7.1300E-01 kg/L
        Solvent mass                       7.4120E+01 g/mol
        Interaction kernel             P16
        Born radius scaling (c1)           1.5847E+00
        Born radii integrator          GBOBC
        Born offset                        0.0000E+00 a0       0.0000E+00 AA
        H-bond correction              true
        Ion screening                  false
        Surface tension                    1.0000E-05 Eh       1.5569E+01 dyn/cm
        Grid points                               230 per atom

          ...................................................
          :                      SETUP                      :
          :.................................................:
          :  # basis functions                 275          :
          :  # atomic orbitals                 275          :
          :  # shells                          167          :
          :  # electrons                       296          :
          :  max. iterations                   250          :
          :  Hamiltonian                  GFN2-xTB          :
          :  restarted?                      false          :
          :  GBSA solvation                   true          :
          :  PC potential                    false          :
          :  electronic temp.          300.0000000     K    :
          :  accuracy                    1.0000000          :
          :  -> integral cutoff          0.2500000E+02      :
          :  -> integral neglect         0.1000000E-07      :
          :  -> SCF convergence          0.1000000E-05 Eh   :
          :  -> wf. convergence          0.1000000E-03 e    :
          :  Broyden damping             0.4000000          :
          :  net charge                          2          :
          :  unpaired electrons                  0          :
          ...................................................

 iter      E             dE          RMSdq      gap      omega  full diag
   1   -166.4770165 -0.166477E+03  0.416E+00    0.05       0.0  T
   2   -166.8398108 -0.362794E+00  0.299E+00    0.18       1.0  T
   3   -166.6991167  0.140694E+00  0.252E+00    0.38       1.0  T
   4   -167.2839802 -0.584864E+00  0.158E+00    0.66       1.0  T
   5   -166.7848966  0.499084E+00  0.213E+00    0.66       1.0  T
   6   -167.2747275 -0.489831E+00  0.115E+00    0.71       1.0  T
   7   -167.3868238 -0.112096E+00  0.837E-01    0.09       1.0  T
   8   -167.4250172 -0.381934E-01  0.529E-01    0.08       1.0  T
   9   -167.4091962  0.158210E-01  0.548E-01    0.11       1.0  T
  10   -167.1168265  0.292370E+00  0.127E+00    0.10       1.0  T
  11   -167.4406191 -0.323793E+00  0.333E-01    0.05       1.0  T
  12   -167.4470885 -0.646940E-02  0.282E-01    0.05       1.0  T
  13   -167.4564053 -0.931677E-02  0.152E-01    0.04       1.0  T
  14   -167.4229671  0.334382E-01  0.422E-01    0.00       1.0  T
  15   -167.4574280 -0.344608E-01  0.998E-02    0.06       1.0  T
  16   -167.4446564  0.127716E-01  0.264E-01    0.02       1.0  T
  17   -167.4588816 -0.142252E-01  0.514E-02    0.05       1.0  T
  18   -167.4575992  0.128238E-02  0.949E-02    0.06       1.0  T
  19   -167.4581895 -0.590295E-03  0.775E-02    0.06       1.0  T
  20   -167.4583014 -0.111950E-03  0.726E-02    0.06       1.0  T
  21   -167.4592807 -0.979242E-03  0.200E-02    0.05       1.0  T
  22   -167.4593357 -0.549797E-04  0.115E-02    0.05       1.0  T
  23   -167.4593564 -0.207310E-04  0.561E-03    0.05       1.7  T
  24   -167.4593630 -0.657214E-05  0.554E-04    0.05      17.0  T
  25   -167.4593630 -0.480989E-07  0.110E-04    0.05      85.5  T
  26   -167.4593630  0.190525E-08  0.133E-04    0.05      70.7  T

   *** convergence criteria satisfied after 26 iterations ***

         #    Occupation            Energy/Eh            Energy/eV
      -------------------------------------------------------------
         1        2.0000           -0.7772417             -21.1498
       ...           ...                  ...                  ...
       142        2.0000           -0.4396168             -11.9626
       143        2.0000           -0.4373452             -11.9008
       144        2.0000           -0.4360994             -11.8669
       145        2.0000           -0.4356441             -11.8545
       146        1.9682           -0.4273259             -11.6281
       147        1.7248           -0.4251496             -11.5689
       148        1.5941           -0.4247054             -11.5568 (HOMO)
       149        0.7128           -0.4228442             -11.5062 (LUMO)
       150                         -0.3307335              -8.9997
       151                         -0.3222380              -8.7685
       152                         -0.2723763              -7.4117
       153                         -0.2680142              -7.2930
       ...                                ...                  ...
       275                          0.6549475              17.8220
      -------------------------------------------------------------
                  HL-Gap            0.0018612 Eh            0.0506 eV
             Fermi-level           -0.4234057 Eh          -11.5215 eV

 SCC (total)                   0 d,  0 h,  0 min,  0.717 sec
 SCC setup                      ...        0 min,  0.001 sec (  0.190%)
 Dispersion                     ...        0 min,  0.003 sec (  0.427%)
 classical contributions        ...        0 min,  0.000 sec (  0.040%)
 integral evaluation            ...        0 min,  0.005 sec (  0.693%)
 iterations                     ...        0 min,  0.694 sec ( 96.828%)
 molecular gradient             ...        0 min,  0.012 sec (  1.722%)
 printout                       ...        0 min,  0.001 sec (  0.097%)

         :::::::::::::::::::::::::::::::::::::::::::::::::::::
         ::                     SUMMARY                     ::
         :::::::::::::::::::::::::::::::::::::::::::::::::::::
         :: total energy            -165.114323936279 Eh    ::
         :: total w/o Gsasa/hb      -165.048197443799 Eh    ::
         :: gradient norm              0.260038396710 Eh/a0 ::
         :: HOMO-LUMO gap              0.050645316170 eV    ::
         ::.................................................::
         :: SCC energy              -167.456071814416 Eh    ::
         :: -> isotropic ES            0.456085862108 Eh    ::
         :: -> anisotropic ES         -0.007227641134 Eh    ::
         :: -> anisotropic XC          0.070935121408 Eh    ::
         :: -> dispersion             -0.115340057798 Eh    ::
         :: -> Gsolv                  -0.230806847856 Eh    ::
         ::    -> Gelec               -0.164680355376 Eh    ::
         ::    -> Gsasa               -0.054628130823 Eh    ::
         ::    -> Ghb                 -0.016451799235 Eh    ::
         ::    -> Gshift               0.004953437577 Eh    ::
         :: repulsion energy           2.341747878137 Eh    ::
         :: add. restraining           0.000000000000 Eh    ::
         :: total charge               2.000000000135 e     ::
         :::::::::::::::::::::::::::::::::::::::::::::::::::::

           -------------------------------------------------
          |                Property Printout                |
           -------------------------------------------------

    * Orbital Energies and Occupations

         #    Occupation            Energy/Eh            Energy/eV
      -------------------------------------------------------------
         1        2.0000           -0.7772417             -21.1498
       ...           ...                  ...                  ...
       136        2.0000           -0.4498685             -12.2415
       137        2.0000           -0.4495939             -12.2341
       138        2.0000           -0.4465309             -12.1507
       139        2.0000           -0.4433639             -12.0645
       140        2.0000           -0.4427317             -12.0473
       141        2.0000           -0.4399296             -11.9711
       142        2.0000           -0.4396168             -11.9626
       143        2.0000           -0.4373452             -11.9008
       144        2.0000           -0.4360994             -11.8669
       145        2.0000           -0.4356441             -11.8545
       146        1.9682           -0.4273259             -11.6281
       147        1.7248           -0.4251496             -11.5689
       148        1.5941           -0.4247054             -11.5568 (HOMO)
       149        0.7128           -0.4228442             -11.5062 (LUMO)
       150                         -0.3307335              -8.9997
       151                         -0.3222380              -8.7685
       152                         -0.2723763              -7.4117
       153                         -0.2680142              -7.2930
       154                         -0.2636971              -7.1756
       155                         -0.2622543              -7.1363
       156                         -0.2605598              -7.0902
       157                         -0.2587055              -7.0397
       158                         -0.2539354              -6.9099
       159                         -0.2526326              -6.8745
       ...                                ...                  ...
       275                          0.6549475              17.8220
      -------------------------------------------------------------
                  HL-Gap            0.0018612 Eh            0.0506 eV
             Fermi-level           -0.4234057 Eh          -11.5215 eV

     #   Z          covCN         q      C6AA      α(0)
     1   7 N        2.632    -0.323    28.308     7.902
     2   6 C        3.785     0.032    20.047     6.377
     3   6 C        2.764     0.199    23.752     7.981
     4   8 O        0.856    -0.345    20.620     6.088
     5   6 C        3.817    -0.078    21.976     6.672
     6   6 C        2.962     0.014    27.708     8.634
     7   6 C        2.923    -0.042    29.047     8.838
     8   6 C        2.923    -0.045    29.110     8.848
     9   6 C        2.915    -0.037    28.917     8.818
    10   6 C        2.915    -0.037    28.926     8.819
    11   6 C        2.915    -0.036    28.888     8.814
    12   7 N        2.635    -0.291    27.494     7.788
    13   6 C        3.790     0.024    20.176     6.397
    14   6 C        2.766     0.269    22.458     7.761
    15   8 O        0.859    -0.468    23.083     6.442
    16   6 C        3.855    -0.014    20.796     6.486
    17   6 C        3.761    -0.124    22.921     6.825
    18   6 C        3.762    -0.128    23.008     6.838
    19   7 N        2.763    -0.057    22.336     7.019
    20   6 C        3.849     0.020    20.208     6.394
    21   6 C        2.760     0.272    22.401     7.751
    22   8 O        0.859    -0.479    23.330     6.476
    23   6 C        3.853    -0.067    21.751     6.633
    24   6 C        3.855    -0.068    21.757     6.634
    25   6 C        3.777    -0.017    20.898     6.513
    26   7 N        2.698    -0.161    24.475     7.348
    27   6 C        3.805     0.022    20.205     6.399
    28   6 C        2.768     0.265    22.523     7.772
    29   8 O        0.859    -0.487    23.494     6.499
    30   6 C        3.813    -0.092    22.237     6.712
    31   6 C        3.088     0.035    27.113     8.535
    32   7 N        2.847    -0.048    22.159     6.991
    33   6 C        3.059     0.010    27.725     8.635
    34   6 C        2.108     0.080    28.863     8.681
    35   7 N        1.979    -0.182    25.721     7.521
    36   7 N        2.690    -0.157    24.406     7.337
    37   6 C        3.801     0.015    20.325     6.419
    38   6 C        2.760     0.262    22.590     7.783
    39   8 O        0.859    -0.487    23.507     6.500
    40   6 C        3.819    -0.082    22.041     6.681
    41   6 C        3.852    -0.014    20.785     6.484
    42   6 C        3.763    -0.125    22.934     6.826
    43   6 C        3.762    -0.124    22.915     6.824
    44   7 N        2.699    -0.157    24.394     7.335
    45   6 C        3.796     0.023    20.198     6.399
    46   6 C        2.773     0.197    23.800     7.990
    47   8 O        0.856    -0.343    20.571     6.081
    48   6 C        3.811    -0.082    22.061     6.686
    49   6 C        3.806    -0.089    22.201     6.708
    50   6 C        3.744    -0.031    21.202     6.568
    51   7 N        2.700    -0.145    24.134     7.296
    52   6 C        2.737     0.235    23.078     7.865
    53   7 N        2.655    -0.258    26.708     7.675
    54   7 N        2.655    -0.268    26.950     7.710
    55   1 H        0.860     0.201     1.102     1.645
    56   1 H        0.860     0.187     1.175     1.698
    57   1 H        0.927     0.093     1.851     2.127
    58   1 H        0.929     0.080     1.983     2.202
    59   1 H        0.927     0.062     2.172     2.305
    60   1 H        0.926     0.084     1.943     2.180
    61   1 H        0.929     0.058     2.226     2.333
    62   1 H        0.929     0.049     2.334     2.389
    63   1 H        0.929     0.058     2.222     2.331
    64   1 H        0.929     0.054     2.272     2.357
    65   1 H        0.929     0.052     2.294     2.368
    66   1 H        0.860     0.209     1.062     1.614
    67   1 H        0.860     0.202     1.096     1.640
    68   1 H        0.927     0.074     2.040     2.234
    69   1 H        0.927     0.057     2.236     2.339
    70   1 H        0.927     0.052     2.300     2.372
    71   1 H        0.927     0.049     2.335     2.389
    72   1 H        0.927     0.064     2.156     2.296
    73   1 H        0.927     0.055     2.258     2.350
    74   1 H        0.927     0.064     2.154     2.295
    75   1 H        0.927     0.049     2.334     2.389
    76   1 H        0.927     0.076     2.022     2.224
    77   1 H        0.926     0.071     2.078     2.254
    78   1 H        0.927     0.062     2.174     2.306
    79   1 H        0.927     0.066     2.133     2.284
    80   1 H        0.927     0.070     2.089     2.260
    81   1 H        0.927     0.075     2.035     2.231
    82   1 H        0.927     0.078     1.998     2.211
    83   1 H        0.861     0.220     1.010     1.574
    84   1 H        0.927     0.088     1.896     2.153
    85   1 H        0.926     0.105     1.741     2.063
    86   1 H        0.927     0.103     1.754     2.071
    87   1 H        0.929     0.092     1.856     2.130
    88   1 H        0.861     0.217     1.023     1.585
    89   1 H        0.927     0.088     1.898     2.155
    90   1 H        0.927     0.062     2.180     2.309
    91   1 H        0.927     0.063     2.162     2.299
    92   1 H        0.927     0.035     2.517     2.481
    93   1 H        0.927     0.046     2.364     2.404
    94   1 H        0.927     0.043     2.408     2.427
    95   1 H        0.927     0.049     2.329     2.387
    96   1 H        0.927     0.045     2.379     2.412
    97   1 H        0.927     0.041     2.431     2.438
    98   1 H        0.927     0.044     2.401     2.423
    99   1 H        0.861     0.221     1.005     1.571
   100   1 H        0.927     0.100     1.781     2.087
   101   1 H        0.929     0.076     2.025     2.225
   102   1 H        0.927     0.076     2.017     2.221
   103   1 H        0.926     0.072     2.060     2.244
   104   1 H        0.927     0.088     1.901     2.156
   105   1 H        0.927     0.067     2.121     2.277
   106   1 H        0.927     0.085     1.924     2.169
   107   1 H        0.927     0.085     1.931     2.173
   108   1 H        0.861     0.249     0.887     1.476
   109   1 H        0.861     0.252     0.874     1.464
   110   1 H        0.861     0.252     0.875     1.465
   111   1 H        0.861     0.255     0.863     1.455
   112   1 H        0.860     0.233     0.952     1.528
   113   1 H        0.858     0.211     1.052     1.607

 Mol. C6AA /au·bohr⁶  :     116692.709658
 Mol. C8AA /au·bohr⁸  :    2634268.397372
 Mol. α(0) /au        :        517.060959


Wiberg/Mayer (AO) data.
largest (>0.10) Wiberg bond orders for each atom

 ---------------------------------------------------------------------------
     #   Z sym  total        # sym  WBO       # sym  WBO       # sym  WBO
 ---------------------------------------------------------------------------
     1   7 N    2.975 --     2 C    1.026    56 H    0.948    55 H    0.940
     2   6 C    3.952 --     1 N    1.026     3 C    0.974    57 H    0.952
                             5 C    0.918
     3   6 C    3.887 --     4 O    1.914     2 C    0.974    58 H    0.946
     4   8 O    2.046 --     3 C    1.914
     5   6 C    3.955 --     6 C    1.016    59 H    0.973    60 H    0.951
                             2 C    0.918
     6   6 C    3.943 --     8 C    1.395     7 C    1.391     5 C    1.016
     7   6 C    3.970 --     9 C    1.451     6 C    1.391    61 H    0.969
                            10 C    0.109
     8   6 C    3.972 --    10 C    1.448     6 C    1.395    62 H    0.971
                             9 C    0.108
     9   6 C    3.983 --     7 C    1.451    11 C    1.426    63 H    0.972
                             8 C    0.108
    10   6 C    3.980 --     8 C    1.448    11 C    1.425    64 H    0.973
                             7 C    0.109
    11   6 C    3.942 --     9 C    1.426    10 C    1.425    65 H    0.973
    12   7 N    2.973 --    13 C    1.036    67 H    0.941    66 H    0.927
    13   6 C    3.913 --    12 N    1.036    68 H    0.959    14 C    0.923
                            16 C    0.906
    14   6 C    3.933 --    15 O    1.612    19 N    1.311    13 C    0.923
    15   8 O    1.920 --    14 C    1.612    19 N    0.186
    16   6 C    3.920 --    17 C    1.008    18 C    1.007    69 H    0.966
                            13 C    0.906
    17   6 C    3.983 --    16 C    1.008    70 H    0.985    71 H    0.982
                            72 H    0.974
    18   6 C    3.980 --    16 C    1.007    73 H    0.984    75 H    0.977
                            74 H    0.975
    19   7 N    3.512 --    14 C    1.311    20 C    0.969    25 C    0.965
                            15 O    0.186
    20   6 C    3.959 --    23 C    0.977    19 N    0.969    76 H    0.952
                            21 C    0.936
    21   6 C    3.945 --    22 O    1.635    26 N    1.299    20 C    0.936
    22   8 O    1.940 --    21 C    1.635    26 N    0.193
    23   6 C    3.986 --    24 C    1.009    20 C    0.977    78 H    0.971
                            77 H    0.970
    24   6 C    3.989 --    23 C    1.009    25 C    1.005    80 H    0.973
                            79 H    0.973
    25   6 C    3.954 --    24 C    1.005    81 H    0.965    19 N    0.965
                            82 H    0.964
    26   7 N    3.472 --    21 C    1.299    27 C    0.972    83 H    0.922
                            22 O    0.193
    27   6 C    3.961 --    30 C    0.972    26 N    0.972    84 H    0.956
                            28 C    0.932
    28   6 C    3.953 --    29 O    1.617    36 N    1.321    27 C    0.932
    29   8 O    1.943 --    28 C    1.617    36 N    0.205
    30   6 C    3.979 --    31 C    1.020    27 C    0.972    85 H    0.950
                            86 H    0.950
    31   6 C    3.901 --    33 C    1.558    32 N    1.148    30 C    1.020
                            34 C    0.116
    32   7 N    3.561 --    34 C    1.330    31 C    1.148   113 H    0.917
    33   6 C    3.888 --    31 C    1.558    35 N    1.205    87 H    0.965
    34   6 C    3.303 --    35 N    1.749    32 N    1.330    31 C    0.116
    35   7 N    3.115 --    34 C    1.749    33 C    1.205
    36   7 N    3.499 --    28 C    1.321    37 C    0.977    88 H    0.923
                            29 O    0.205
    37   6 C    3.962 --    36 N    0.977    40 C    0.967    89 H    0.949
                            38 C    0.939
    38   6 C    3.952 --    39 O    1.638    44 N    1.297    37 C    0.939
    39   8 O    1.952 --    38 C    1.638    44 N    0.196
    40   6 C    3.985 --    41 C    0.990    91 H    0.973    90 H    0.971
                            37 C    0.967
    41   6 C    3.995 --    43 C    1.010    42 C    1.005    40 C    0.990
                            92 H    0.970
    42   6 C    3.993 --    41 C    1.005    93 H    0.986    94 H    0.986
                            95 H    0.985
    43   6 C    3.996 --    41 C    1.010    96 H    0.986    97 H    0.986
                            98 H    0.982
    44   7 N    3.481 --    38 C    1.297    45 C    0.965    99 H    0.913
                            39 O    0.196
    45   6 C    3.960 --    48 C    0.973    46 C    0.966    44 N    0.965
                           100 H    0.958
    46   6 C    3.898 --    47 O    1.912    45 C    0.966   101 H    0.950
    47   8 O    2.058 --    46 C    1.912
    48   6 C    3.987 --    49 C    1.007    45 C    0.973   103 H    0.972
                           102 H    0.970
    49   6 C    3.988 --    48 C    1.007    50 C    1.004   105 H    0.968
                           104 H    0.967
    50   6 C    3.953 --    49 C    1.004    51 N    0.975   107 H    0.963
                           106 H    0.963
    51   7 N    3.464 --    52 C    1.321    50 C    0.975   112 H    0.914
                            54 N    0.103    53 N    0.102
    52   6 C    3.977 --    51 N    1.321    53 N    1.318    54 N    1.311
    53   7 N    3.395 --    52 C    1.318   109 H    0.918   108 H    0.915
                            51 N    0.102
    54   7 N    3.384 --    52 C    1.311   110 H    0.918   111 H    0.916
                            51 N    0.103
    55   1 H    0.956 --     1 N    0.940
    56   1 H    0.963 --     1 N    0.948
    57   1 H    0.990 --     2 C    0.952
    58   1 H    0.990 --     3 C    0.946
    59   1 H    0.996 --     5 C    0.973
    60   1 H    0.988 --     5 C    0.951
    61   1 H    0.996 --     7 C    0.969
    62   1 H    0.998 --     8 C    0.971
    63   1 H    0.996 --     9 C    0.972
    64   1 H    0.996 --    10 C    0.973
    65   1 H    0.996 --    11 C    0.973
    66   1 H    0.948 --    12 N    0.927
    67   1 H    0.957 --    12 N    0.941
    68   1 H    0.993 --    13 C    0.959
    69   1 H    0.995 --    16 C    0.966
    70   1 H    0.997 --    17 C    0.985
    71   1 H    0.996 --    17 C    0.982
    72   1 H    0.985 --    17 C    0.974
    73   1 H    0.995 --    18 C    0.984
    74   1 H    0.988 --    18 C    0.975
    75   1 H    0.998 --    18 C    0.977
    76   1 H    0.992 --    20 C    0.952
    77   1 H    0.994 --    23 C    0.970
    78   1 H    0.995 --    23 C    0.971
    79   1 H    0.995 --    24 C    0.973
    80   1 H    0.995 --    24 C    0.973
    81   1 H    0.993 --    25 C    0.965
    82   1 H    0.991 --    25 C    0.964
    83   1 H    0.952 --    26 N    0.922
    84   1 H    0.992 --    27 C    0.956
    85   1 H    0.988 --    30 C    0.950
    86   1 H    0.982 --    30 C    0.950
    87   1 H    0.991 --    33 C    0.965
    88   1 H    0.953 --    36 N    0.923
    89   1 H    0.992 --    37 C    0.949
    90   1 H    0.995 --    40 C    0.971
    91   1 H    0.996 --    40 C    0.973
    92   1 H    0.999 --    41 C    0.970
    93   1 H    0.998 --    42 C    0.986
    94   1 H    0.998 --    42 C    0.986
    95   1 H    0.997 --    42 C    0.985
    96   1 H    0.998 --    43 C    0.986
    97   1 H    0.998 --    43 C    0.986
    98   1 H    0.998 --    43 C    0.982
    99   1 H    0.951 --    44 N    0.913
   100   1 H    0.990 --    45 C    0.958
   101   1 H    0.994 --    46 C    0.950
   102   1 H    0.994 --    48 C    0.970
   103   1 H    0.994 --    48 C    0.972
   104   1 H    0.992 --    49 C    0.967
   105   1 H    0.996 --    49 C    0.968
   106   1 H    0.993 --    50 C    0.963
   107   1 H    0.993 --    50 C    0.963
   108   1 H    0.938 --    53 N    0.915
   109   1 H    0.936 --    53 N    0.918
   110   1 H    0.936 --    54 N    0.918
   111   1 H    0.934 --    54 N    0.916
   112   1 H    0.946 --    51 N    0.914
   113   1 H    0.955 --    32 N    0.917
 ---------------------------------------------------------------------------

Topologies differ in total number of bonds
Writing topology from bond orders to xtbtopo.mol

molecular dipole:
                 x           y           z       tot (Debye)
 q only:       64.763     104.110      32.608
   full:       64.397     104.706      32.965     323.482
molecular quadrupole (traceless):
                xx          xy          yy          xz          yz          zz
 q only:     -992.109    5065.764    4337.272    1538.294    2650.166   -3345.163
  q+dip:    -1058.793    5069.257    4411.543    1546.397    2695.698   -3352.750
   full:    -1059.847    5066.788    4413.916    1547.694    2695.983   -3354.069


           -------------------------------------------------
          | TOTAL ENERGY             -165.114323936279 Eh   |
          | GRADIENT NORM               0.260038396710 Eh/α |
          | HOMO-LUMO GAP               0.050645316170 eV   |
           -------------------------------------------------
########################################################################
[WARNING] Runtime exception occurred
-2- restart_readRestart: Dimension missmatch in restart file.
-1- restart_readRestart: Number of electron missmatch in restart file.
########################################################################

------------------------------------------------------------------------
 * finished run on 2025/05/01 at 18:01:38.476     
------------------------------------------------------------------------
 total:
 * wall-time:     0 d,  0 h,  0 min,  0.728 sec
 *  cpu-time:     0 d,  0 h,  0 min, 19.293 sec
 * ratio c/w:    26.518 speedup
 SCF:
 * wall-time:     0 d,  0 h,  0 min,  0.717 sec
 *  cpu-time:     0 d,  0 h,  0 min, 19.081 sec
 * ratio c/w:    26.597 speedup

