      -----------------------------------------------------------      
     |                   =====================                   |     
     |                           x T B                           |     
     |                   =====================                   |     
     |                         S. Grimme                         |     
     |          Mulliken Center for Theoretical Chemistry        |     
     |                    University of Bonn                     |     
      -----------------------------------------------------------      

   * xtb version 6.7.1 (edcfbbe) compiled by 'conda@afd1a870197c' on 2025-04-11

   xtb is free software: you can redistribute it and/or modify it under
   the terms of the GNU Lesser General Public License as published by
   the Free Software Foundation, either version 3 of the License, or
   (at your option) any later version.
   
   xtb is distributed in the hope that it will be useful,
   but WITHOUT ANY WARRANTY; without even the implied warranty of
   MERCHANTABILITY or FITNESS FOR A PARTICULAR PURPOSE.  See the
   GNU Lesser General Public License for more details.
   
   Cite this work as:
   * C. Bannwarth, E. Caldeweyher, S. Ehlert, A. Hansen, P. Pracht,
     J. Seibert, S. Spicher, S. Grimme, WIREs Comput. Mol. Sci., 2020, 11,
     e01493. DOI: 10.1002/wcms.1493
   
   for GFN2-xTB:
   * C. Bannwarth, S. Ehlert and S. Grimme., J. Chem. Theory Comput., 2019,
     15, 1652-1671. DOI: 10.1021/acs.jctc.8b01176
   for GFN1-xTB:
   * S. Grimme, C. Bannwarth, P. Shushkov, J. Chem. Theory Comput., 2017,
     13, 1989-2009. DOI: 10.1021/acs.jctc.7b00118
   for GFN0-xTB:
   * P. Pracht, E. Caldeweyher, S. Ehlert, S. Grimme, ChemRxiv, 2019, preprint.
     DOI: 10.26434/chemrxiv.8326202.v1
   for GFN-FF:
   * S. Spicher and S. Grimme, Angew. Chem. Int. Ed., 2020, 59, 15665-15673.
     DOI: 10.1002/anie.202004239
   
   for ALPB and GBSA implicit solvation:
   * S. Ehlert, M. Stahn, S. Spicher, S. Grimme, J. Chem. Theory Comput.,
     2021, 17, 4250-4261. DOI: 10.1021/acs.jctc.1c00471
   
   for ddCOSMO and CPCM-X implicit solvation:
   * M. Stahn, S. Ehlert, S. Grimme, J. Phys. Chem. A,
     2023, XX, XXXX-XXXX. DOI: 10.1021/acs.jpca.3c04382
   
   for DFT-D4:
   * E. Caldeweyher, C. Bannwarth and S. Grimme, J. Chem. Phys., 2017,
     147, 034112. DOI: 10.1063/1.4993215
   * E. Caldeweyher, S. Ehlert, A. Hansen, H. Neugebauer, S. Spicher,
     C. Bannwarth and S. Grimme, J. Chem. Phys., 2019, 150, 154122.
     DOI: 10.1063/1.5090222
   * E. Caldeweyher, J.-M. Mewes, S. Ehlert and S. Grimme, Phys. Chem. Chem. Phys.
     2020, 22, 8499-8512. DOI: 10.1039/D0CP00502A
   
   for sTDA-xTB:
   * S. Grimme and C. Bannwarth, J. Chem. Phys., 2016, 145, 054103.
     DOI: 10.1063/1.4959605
   
   in the mass-spec context:
   * V. Asgeirsson, C. Bauer and S. Grimme, Chem. Sci., 2017, 8, 4879.
     DOI: 10.1039/c7sc00601b
   * J. Koopman and S. Grimme, ACS Omega 2019, 4, 12, 15120-15133.
     DOI: 10.1021/acsomega.9b02011
   
   for metadynamics refer to:
   * S. Grimme, J. Chem. Theory Comput., 2019, 155, 2847-2862
     DOI: 10.1021/acs.jctc.9b00143
   
   for SPH calculations refer to:
   * S. Spicher and S. Grimme, J. Chem. Theory Comput., 2021, 17, 1701-1714
     DOI: 10.1021/acs.jctc.0c01306
   
   for ONIOM refer to:
   * C. Plett, A. Katbashev, S. Ehlert, S. Grimme, M. Bursch,
     Phys. Chem. Chem. Phys., 2023, 25, 17860-17868. DOI: 10.1039/D3CP02178E
   
   for DIPRO refer to:
   * J. Kohn, N. Gildemeister, S. Grimme, D. Fazzi, A. Hansen,
     J. Chem. Phys., 2023, just accepted.
   
   for PTB refer to:
   * S. Grimme, M. Mueller, A. Hansen, J. Chem. Phys., 2023, 158, 124111.
     DOI: 10.1063/5.0137838
   
   with help from (in alphabetical order)
   P. Atkinson, C. Bannwarth, F. Bohle, G. Brandenburg, E. Caldeweyher
   M. Checinski, S. Dohm, S. Ehlert, S. Ehrlich, I. Gerasimov, C. Hölzer
   A. Katbashev, J. Kohn, J. Koopman, C. Lavigne, S. Lehtola, F. März, M. Müller,
   F. Musil, H. Neugebauer, J. Pisarek, C. Plett, P. Pracht, F. Pultar,
   J. Seibert, P. Shushkov, S. Spicher, M. Stahn, M. Steiner, T. Strunk,
   J. Stückrath, T. Rose, and J. Unsleber
   
 * started run on 2025/05/05 at 16:59:23.780     
   ID    Z sym.   atoms
    1    7 N      1, 9, 10, 18, 25, 37, 45, 50, 59, 65, 68
    2    6 C      2, 3, 5-7, 11, 12, 14-17, 19, 20, 22-24, 26, 27, 29-35, 38,
                  39, 41-44, 46, 47, 49, 51, 52, 54-56, 60, 61, 63, 64, 66, 67
    3    8 O      4, 8, 13, 21, 28, 36, 40, 48, 53, 57, 58, 62
    4    1 H      69-139

           -------------------------------------------------
          |                Calculation Setup                |
           -------------------------------------------------

          program call               : xtb /tmp/tmptlnxiu89/HIE/input.xyz --alpb ether --chrg -2 --input /tmp/tmptlnxiu89/HIE/constraints.inp --gfn 2
          hostname                   : fedora
          coordinate file            : /tmp/tmptlnxiu89/HIE/input.xyz
          omp threads                :                    32


molecular fragmentation (1/2 indicates fragments):
111111111222222222222222222222222222222222222222222222222222222222221111
1111112222222222222222222222222222222222222222222222222222222222222
# atoms in fragment 1/2:    19   120
 fragment masses (1/2) :      130.15      827.97
CMA distance (Bohr)    :  17.390
constraining FC (au)   :  0.0500
########################################################################
[WARNING] Please study the warnings concerning your input carefully
-1- readin_getIntValue: could not parse 'S'
########################################################################

           -------------------------------------------------
          |                 G F N 2 - x T B                 |
           -------------------------------------------------

        Reference                      10.1021/acs.jctc.8b01176
      * Hamiltonian:
        H0-scaling (s, p, d)           1.850000    2.230000    2.230000
        zeta-weighting                 0.500000
      * Dispersion:
        s8                             2.700000
        a1                             0.520000
        a2                             5.000000
        s9                             5.000000
      * Repulsion:
        kExp                           1.500000    1.000000
        rExp                           1.000000
      * Coulomb:
        alpha                          2.000000
        third order                    shell-resolved
        anisotropic                    true
        a3                             3.000000
        a5                             4.000000
        cn-shift                       1.200000
        cn-exp                         4.000000
        max-rad                        5.000000

      * Solvation model:               ALPB
        Solvent                        ether
        Parameter file                 internal GFN2-xTB/ALPB
        Dielectric constant                4.3300E+00
        Reference state                gsolv [1 M gas/solution]
        Free energy shift                  4.9534E-03 Eh       3.1083E+00 kcal/mol
        Temperature                        2.9815E+02 K
        Density                            7.1300E-01 kg/L
        Solvent mass                       7.4120E+01 g/mol
        Interaction kernel             P16
        Born radius scaling (c1)           1.5847E+00
        Born radii integrator          GBOBC
        Born offset                        0.0000E+00 a0       0.0000E+00 AA
        H-bond correction              true
        Ion screening                  false
        Surface tension                    1.0000E-05 Eh       1.5569E+01 dyn/cm
        Grid points                               230 per atom

          ...................................................
          :                      SETUP                      :
          :.................................................:
          :  # basis functions                 343          :
          :  # atomic orbitals                 343          :
          :  # shells                          207          :
          :  # electrons                       380          :
          :  max. iterations                   250          :
          :  Hamiltonian                  GFN2-xTB          :
          :  restarted?                      false          :
          :  GBSA solvation                   true          :
          :  PC potential                    false          :
          :  electronic temp.          300.0000000     K    :
          :  accuracy                    1.0000000          :
          :  -> integral cutoff          0.2500000E+02      :
          :  -> integral neglect         0.1000000E-07      :
          :  -> SCF convergence          0.1000000E-05 Eh   :
          :  -> wf. convergence          0.1000000E-03 e    :
          :  Broyden damping             0.4000000          :
          :  net charge                         -2          :
          :  unpaired electrons                  0          :
          ...................................................

 iter      E             dE          RMSdq      gap      omega  full diag
   1   -215.8585681 -0.215859E+03  0.445E+00    1.89       0.0  T
   2   -215.6657096  0.192858E+00  0.290E+00    0.00       1.0  T
   3   -216.2320592 -0.566350E+00  0.222E+00    1.88       1.0  T
   4   -216.5726663 -0.340607E+00  0.112E+00    1.28       1.0  T
   5   -215.9215552  0.651111E+00  0.203E+00    0.13       1.0  T
   6   -216.5905092 -0.668954E+00  0.709E-01    0.85       1.0  T
   7   -216.0486084  0.541901E+00  0.167E+00    0.04       1.0  T
   8   -216.6003314 -0.551723E+00  0.567E-01    0.43       1.0  T
   9   -216.6189685 -0.186371E-01  0.438E-01    0.16       1.0  T
  10   -216.6201608 -0.119235E-02  0.412E-01    0.13       1.0  T
  11   -216.6064490  0.137118E-01  0.480E-01    0.31       1.0  T
  12   -216.6303943 -0.239453E-01  0.340E-01    0.07       1.0  T
  13   -216.6226337  0.776062E-02  0.373E-01    0.17       1.0  T
  14   -216.6239482 -0.131451E-02  0.371E-01    0.05       1.0  T
  15   -216.6389687 -0.150205E-01  0.244E-01    0.12       1.0  T
  16   -216.6447502 -0.578144E-02  0.173E-01    0.09       1.0  T
  17   -216.6442516  0.498597E-03  0.168E-01    0.08       1.0  T
  18   -216.5903487  0.539029E-01  0.576E-01    0.03       1.0  T
  19   -216.6456429 -0.552942E-01  0.138E-01    0.10       1.0  T
  20   -216.6455713  0.715142E-04  0.134E-01    0.10       1.0  T
  21   -216.6466159 -0.104456E-02  0.111E-01    0.10       1.0  T
  22   -216.6482066 -0.159065E-02  0.481E-02    0.10       1.0  T
  23   -216.6479658  0.240728E-03  0.621E-02    0.09       1.0  T
  24   -216.6483443 -0.378506E-03  0.403E-02    0.10       1.0  T
  25   -216.6485842 -0.239885E-03  0.152E-02    0.10       1.0  T
  26   -216.6486099 -0.256572E-04  0.880E-03    0.10       1.0  T
  27   -216.6486221 -0.122042E-04  0.273E-03    0.10       3.1  T
  28   -216.6486230 -0.892454E-06  0.147E-03    0.10       5.8  T
  29   -216.6486233 -0.359564E-06  0.351E-04    0.10      24.2  T
  30   -216.6486234 -0.212439E-07  0.599E-05    0.10     141.7  T

   *** convergence criteria satisfied after 30 iterations ***

         #    Occupation            Energy/Eh            Energy/eV
      -------------------------------------------------------------
         1        2.0000           -0.6957145             -18.9314
       ...           ...                  ...                  ...
       184        2.0000           -0.3211484              -8.7389
       185        2.0000           -0.3207262              -8.7274
       186        2.0000           -0.3023833              -8.2283
       187        2.0000           -0.2919792              -7.9452
       188        2.0000           -0.2858206              -7.7776
       189        2.0000           -0.2707211              -7.3667
       190        1.5492           -0.2489933              -6.7755 (HOMO)
       191        0.1518           -0.2454461              -6.6789 (LUMO)
       192        0.1396           -0.2453600              -6.6766
       193        0.1076           -0.2450965              -6.6694
       194        0.0519           -0.2443755              -6.6498
       195                         -0.2009361              -5.4678
       ...                                ...                  ...
       343                          0.7132937              19.4097
      -------------------------------------------------------------
                  HL-Gap            0.0035472 Eh            0.0965 eV
             Fermi-level           -0.2478205 Eh           -6.7435 eV

 SCC (total)                   0 d,  0 h,  0 min,  0.645 sec
 SCC setup                      ...        0 min,  0.002 sec (  0.349%)
 Dispersion                     ...        0 min,  0.004 sec (  0.546%)
 classical contributions        ...        0 min,  0.000 sec (  0.023%)
 integral evaluation            ...        0 min,  0.006 sec (  1.006%)
 iterations                     ...        0 min,  0.610 sec ( 94.599%)
 molecular gradient             ...        0 min,  0.021 sec (  3.288%)
 printout                       ...        0 min,  0.001 sec (  0.184%)

         :::::::::::::::::::::::::::::::::::::::::::::::::::::
         ::                     SUMMARY                     ::
         :::::::::::::::::::::::::::::::::::::::::::::::::::::
         :: total energy            -213.916548837895 Eh    ::
         :: total w/o Gsasa/hb      -213.848584402545 Eh    ::
         :: gradient norm              0.354696636870 Eh/a0 ::
         :: HOMO-LUMO gap              0.096524130240 eV    ::
         ::.................................................::
         :: SCC energy              -216.639484629464 Eh    ::
         :: -> isotropic ES            0.816432367428 Eh    ::
         :: -> anisotropic ES          0.029930296898 Eh    ::
         :: -> anisotropic XC          0.078068430539 Eh    ::
         :: -> dispersion             -0.153409907043 Eh    ::
         :: -> Gsolv                  -0.287764636551 Eh    ::
         ::    -> Gelec               -0.219800201201 Eh    ::
         ::    -> Gsasa               -0.060770997195 Eh    ::
         ::    -> Ghb                 -0.012146875733 Eh    ::
         ::    -> Gshift               0.004953437577 Eh    ::
         :: repulsion energy           2.722935791568 Eh    ::
         :: add. restraining           0.000000000000 Eh    ::
         :: total charge              -1.999999999998 e     ::
         :::::::::::::::::::::::::::::::::::::::::::::::::::::

           -------------------------------------------------
          |                Property Printout                |
           -------------------------------------------------

    * Orbital Energies and Occupations

         #    Occupation            Energy/Eh            Energy/eV
      -------------------------------------------------------------
         1        2.0000           -0.6957145             -18.9314
       ...           ...                  ...                  ...
       178        2.0000           -0.3499826              -9.5235
       179        2.0000           -0.3423365              -9.3154
       180        2.0000           -0.3414659              -9.2918
       181        2.0000           -0.3347585              -9.1092
       182        2.0000           -0.3276652              -8.9162
       183        2.0000           -0.3269022              -8.8955
       184        2.0000           -0.3211484              -8.7389
       185        2.0000           -0.3207262              -8.7274
       186        2.0000           -0.3023833              -8.2283
       187        2.0000           -0.2919792              -7.9452
       188        2.0000           -0.2858206              -7.7776
       189        2.0000           -0.2707211              -7.3667
       190        1.5492           -0.2489933              -6.7755 (HOMO)
       191        0.1518           -0.2454461              -6.6789 (LUMO)
       192        0.1396           -0.2453600              -6.6766
       193        0.1076           -0.2450965              -6.6694
       194        0.0519           -0.2443755              -6.6498
       195                         -0.2009361              -5.4678
       196                         -0.1941510              -5.2831
       197                         -0.1883868              -5.1263
       198                         -0.1844665              -5.0196
       199                         -0.1753229              -4.7708
       200                         -0.1656123              -4.5065
       201                         -0.1647038              -4.4818
       ...                                ...                  ...
       343                          0.7132937              19.4097
      -------------------------------------------------------------
                  HL-Gap            0.0035472 Eh            0.0965 eV
             Fermi-level           -0.2478205 Eh           -6.7435 eV

     #   Z          covCN         q      C6AA      α(0)
     1   7 N        2.630    -0.368    29.492     8.065
     2   6 C        3.774     0.024    20.205     6.405
     3   6 C        2.758     0.186    24.003     8.023
     4   8 O        0.856    -0.392    21.528     6.221
     5   6 C        3.795    -0.060    21.660     6.627
     6   6 C        3.812    -0.103    22.456     6.745
     7   6 C        2.744     0.287    22.128     7.702
     8   8 O        0.860    -0.511    24.020     6.571
     9   7 N        2.645    -0.269    26.967     7.712
    10   7 N        2.625    -0.368    29.502     8.067
    11   6 C        3.776     0.039    19.936     6.362
    12   6 C        2.763     0.175    24.237     8.062
    13   8 O        0.856    -0.414    21.963     6.283
    14   6 C        3.789    -0.078    22.005     6.681
    15   6 C        3.833    -0.018    20.874     6.500
    16   6 C        3.750    -0.117    22.801     6.810
    17   6 C        3.756    -0.111    22.677     6.790
    18   7 N        2.711    -0.276    27.138     7.737
    19   6 C        3.823     0.031    20.031     6.369
    20   6 C        2.759     0.163    24.457     8.099
    21   8 O        0.856    -0.406    21.795     6.259
    22   6 C        3.856    -0.048    21.397     6.579
    23   6 C        3.871    -0.050    21.418     6.581
    24   6 C        3.773     0.013    20.378     6.432
    25   7 N        2.628    -0.377    29.749     8.101
    26   6 C        3.782     0.029    20.103     6.387
    27   6 C        2.758     0.267    22.495     7.767
    28   8 O        0.859    -0.513    24.065     6.577
    29   6 C        3.814    -0.072    21.864     6.655
    30   6 C        2.959    -0.005    28.150     8.702
    31   6 C        2.927    -0.037    28.930     8.821
    32   6 C        2.923    -0.049    29.223     8.865
    33   6 C        2.919    -0.067    29.673     8.933
    34   6 C        2.914    -0.066    29.635     8.927
    35   6 C        2.845     0.145    24.831     8.167
    36   8 O        1.660    -0.455    21.948     6.324
    37   7 N        2.685    -0.183    24.963     7.420
    38   6 C        3.800     0.025    20.149     6.391
    39   6 C        2.753     0.273    22.394     7.749
    40   8 O        0.858    -0.484    23.423     6.489
    41   6 C        3.817    -0.076    21.947     6.667
    42   6 C        3.856    -0.014    20.786     6.484
    43   6 C        3.769    -0.122    22.881     6.817
    44   6 C        3.764    -0.110    22.641     6.782
    45   7 N        2.682    -0.197    25.269     7.466
    46   6 C        3.792     0.030    20.078     6.381
    47   6 C        2.754     0.276    22.339     7.740
    48   8 O        0.857    -0.492    23.603     6.514
    49   6 C        3.767    -0.122    22.872     6.816
    50   7 N        2.683    -0.176    24.816     7.399
    51   6 C        3.780     0.019    20.270     6.414
    52   6 C        2.747     0.279    22.284     7.729
    53   8 O        0.859    -0.483    23.408     6.487
    54   6 C        3.803    -0.044    21.367     6.581
    55   6 C        3.806    -0.088    22.170     6.703
    56   6 C        2.688     0.358    20.917     7.485
    57   8 O        0.856    -0.659    27.616     7.046
    58   8 O        0.857    -0.635    26.986     6.965
    59   7 N        2.681    -0.168    24.627     7.370
    60   6 C        3.772     0.042    19.896     6.356
    61   6 C        2.747     0.194    23.864     7.999
    62   8 O        0.855    -0.373    21.155     6.167
    63   6 C        3.804    -0.060    21.644     6.623
    64   6 C        3.050     0.037    27.132     8.543
    65   7 N        1.988    -0.375    30.593     8.203
    66   6 C        3.053    -0.049    29.157     8.856
    67   6 C        2.082    -0.102    33.737     9.383
    68   7 N        2.819    -0.121    23.626     7.219
    69   1 H        0.860     0.167     1.289     1.778
    70   1 H        0.860     0.155     1.367     1.831
    71   1 H        0.927     0.064     2.149     2.293
    72   1 H        0.929     0.043     2.411     2.428
    73   1 H        0.926     0.039     2.457     2.451
    74   1 H        0.926     0.054     2.270     2.356
    75   1 H        0.927     0.069     2.100     2.266
    76   1 H        0.927     0.074     2.038     2.232
    77   1 H        0.861     0.226     0.980     1.551
    78   1 H        0.861     0.209     1.060     1.612
    79   1 H        0.860     0.152     1.385     1.844
    80   1 H        0.860     0.160     1.333     1.809
    81   1 H        0.927     0.012     2.850     2.640
    82   1 H        0.929     0.032     2.558     2.501
    83   1 H        0.927     0.063     2.165     2.301
    84   1 H        0.927     0.050     2.319     2.381
    85   1 H        0.927     0.024     2.674     2.557
    86   1 H        0.926     0.041     2.432     2.439
    87   1 H        0.927     0.036     2.502     2.474
    88   1 H        0.926     0.044     2.402     2.423
    89   1 H        0.927     0.044     2.391     2.418
    90   1 H        0.927     0.042     2.420     2.433
    91   1 H        0.927     0.039     2.461     2.453
    92   1 H        0.860     0.145     1.433     1.875
    93   1 H        0.927     0.028     2.619     2.531
    94   1 H        0.929     0.042     2.416     2.431
    95   1 H        0.927     0.037     2.489     2.467
    96   1 H        0.927     0.048     2.351     2.398
    97   1 H        0.927     0.031     2.566     2.505
    98   1 H        0.927     0.034     2.532     2.488
    99   1 H        0.927     0.038     2.481     2.463
   100   1 H        0.926     0.027     2.634     2.538
   101   1 H        0.860     0.146     1.425     1.870
   102   1 H        0.860     0.165     1.302     1.787
   103   1 H        0.927     0.043     2.410     2.428
   104   1 H        0.927     0.064     2.155     2.296
   105   1 H        0.926     0.056     2.248     2.345
   106   1 H        0.929     0.047     2.361     2.403
   107   1 H        0.929     0.046     2.373     2.409
   108   1 H        0.929     0.047     2.351     2.397
   109   1 H        0.929     0.051     2.304     2.373
   110   1 H        0.807     0.341     0.610     1.226
   111   1 H        0.861     0.224     0.991     1.559
   112   1 H        0.927     0.083     1.953     2.185
   113   1 H        0.927     0.064     2.152     2.294
   114   1 H        0.927     0.058     2.217     2.329
   115   1 H        0.927     0.038     2.481     2.463
   116   1 H        0.927     0.047     2.357     2.401
   117   1 H        0.927     0.044     2.402     2.424
   118   1 H        0.927     0.048     2.344     2.394
   119   1 H        0.927     0.041     2.433     2.439
   120   1 H        0.926     0.043     2.413     2.429
   121   1 H        0.927     0.034     2.536     2.490
   122   1 H        0.861     0.205     1.080     1.628
   123   1 H        0.927     0.085     1.928     2.171
   124   1 H        0.927     0.057     2.235     2.338
   125   1 H        0.926     0.070     2.089     2.260
   126   1 H        0.927     0.075     2.035     2.231
   127   1 H        0.861     0.193     1.144     1.675
   128   1 H        0.927     0.078     1.995     2.209
   129   1 H        0.927     0.049     2.333     2.389
   130   1 H        0.927     0.048     2.345     2.394
   131   1 H        0.927     0.025     2.662     2.551
   132   1 H        0.927     0.029     2.604     2.523
   133   1 H        0.861     0.218     1.019     1.581
   134   1 H        0.927     0.060     2.196     2.317
   135   1 H        0.929     0.068     2.105     2.269
   136   1 H        0.927     0.033     2.545     2.495
   137   1 H        0.927     0.054     2.267     2.354
   138   1 H        0.929    -0.020     3.426     2.894
   139   1 H        0.858     0.141     1.462     1.894

 Mol. C6AA /au·bohr⁶  :     187355.051527
 Mol. C8AA /au·bohr⁸  :    4176665.438870
 Mol. α(0) /au        :        651.434246


Wiberg/Mayer (AO) data.
largest (>0.10) Wiberg bond orders for each atom

 ---------------------------------------------------------------------------
     #   Z sym  total        # sym  WBO       # sym  WBO       # sym  WBO
 ---------------------------------------------------------------------------
     1   7 N    3.006 --     2 C    1.032    70 H    0.961    69 H    0.954
     2   6 C    3.983 --     1 N    1.032     3 C    0.966    71 H    0.958
                             5 C    0.942
     3   6 C    3.801 --     4 O    1.829     2 C    0.966    72 H    0.950
     4   8 O    1.972 --     3 C    1.829
     5   6 C    3.985 --     6 C    1.004    73 H    0.980    74 H    0.974
                             2 C    0.942
     6   6 C    3.995 --     5 C    1.004     7 C    0.974    75 H    0.961
                            76 H    0.957
     7   6 C    3.945 --     8 O    1.626     9 N    1.315     6 C    0.974
     8   8 O    1.931 --     7 C    1.626     9 N    0.196
     9   7 N    3.409 --     7 C    1.315    78 H    0.931    77 H    0.930
                             8 O    0.196
    10   7 N    2.972 --    11 C    0.991    79 H    0.964    80 H    0.962
    11   6 C    3.986 --    12 C    0.992    10 N    0.991    81 H    0.973
                            14 C    0.964
    12   6 C    3.774 --    13 O    1.783    11 C    0.992    82 H    0.956
    13   8 O    1.904 --    12 C    1.783
    14   6 C    3.982 --    15 C    0.982    84 H    0.980    83 H    0.978
                            11 C    0.964
    15   6 C    3.990 --    17 C    1.013    16 C    1.003    14 C    0.982
                            85 H    0.972
    16   6 C    3.996 --    15 C    1.003    87 H    0.989    86 H    0.989
                            88 H    0.987
    17   6 C    3.995 --    15 C    1.013    89 H    0.987    91 H    0.986
                            90 H    0.985
    18   7 N    3.043 --    24 C    1.000    19 C    0.992    92 H    0.963
    19   6 C    3.988 --    18 N    0.992    22 C    0.972    93 H    0.967
                            20 C    0.965
    20   6 C    3.777 --    21 O    1.800    19 C    0.965    94 H    0.956
    21   8 O    1.924 --    20 C    1.800
    22   6 C    3.990 --    23 C    1.012    95 H    0.975    19 C    0.972
                            96 H    0.969
    23   6 C    3.999 --    22 C    1.012    24 C    1.006    97 H    0.977
                            98 H    0.973
    24   6 C    3.986 --    23 C    1.006    18 N    1.000   100 H    0.978
                            99 H    0.974
    25   7 N    2.984 --    26 C    0.995   101 H    0.967   102 H    0.960
    26   6 C    3.980 --    25 N    0.995    29 C    0.969   103 H    0.961
                            27 C    0.940
    27   6 C    3.940 --    28 O    1.628    37 N    1.307    26 C    0.940
    28   8 O    1.944 --    27 C    1.628    37 N    0.194
    29   6 C    3.994 --    30 C    1.006   104 H    0.972   105 H    0.970
                            26 C    0.969
    30   6 C    3.987 --    32 C    1.453    31 C    1.373    29 C    1.006
    31   6 C    3.992 --    33 C    1.477    30 C    1.373   106 H    0.970
                            34 C    0.117
    32   6 C    3.991 --    30 C    1.453    34 C    1.404   107 H    0.970
                            33 C    0.104
    33   6 C    3.991 --    31 C    1.477    35 C    1.362   108 H    0.969
                            32 C    0.104
    34   6 C    3.988 --    32 C    1.404    35 C    1.402   109 H    0.972
                            31 C    0.117
    35   6 C    3.935 --    34 C    1.402    33 C    1.362    36 O    1.046
    36   8 O    2.060 --    35 C    1.046   110 H    0.865
    37   7 N    3.458 --    27 C    1.307    38 C    0.959   111 H    0.915
                            28 O    0.194
    38   6 C    3.961 --    41 C    0.977    37 N    0.959    39 C    0.954
                           112 H    0.945
    39   6 C    3.947 --    40 O    1.641    45 N    1.276    38 C    0.954
    40   8 O    1.963 --    39 C    1.641    45 N    0.195
    41   6 C    3.987 --    42 C    0.989    38 C    0.977   114 H    0.974
                           113 H    0.971
    42   6 C    3.995 --    44 C    1.013    43 C    1.008    41 C    0.989
                           115 H    0.968
    43   6 C    3.994 --    42 C    1.008   117 H    0.986   116 H    0.986
                           118 H    0.985
    44   6 C    3.997 --    42 C    1.013   119 H    0.986   120 H    0.982
                           121 H    0.977
    45   7 N    3.440 --    39 C    1.276    46 C    0.958   122 H    0.927
                            40 O    0.195
    46   6 C    3.963 --    49 C    1.005    45 N    0.958   123 H    0.953
                            47 C    0.941
    47   6 C    3.949 --    48 O    1.635    50 N    1.302    46 C    0.941
    48   8 O    1.946 --    47 C    1.635    50 N    0.200
    49   6 C    3.987 --    46 C    1.005   124 H    0.983   125 H    0.979
                           126 H    0.976
    50   7 N    3.472 --    47 C    1.302    51 C    0.970   127 H    0.925
                            48 O    0.200
    51   6 C    3.957 --    50 N    0.970    54 C    0.967   128 H    0.953
                            52 C    0.931
    52   6 C    3.949 --    53 O    1.646    59 N    1.293    51 C    0.931
    53   8 O    1.952 --    52 C    1.646    59 N    0.174
    54   6 C    3.990 --    55 C    0.997   129 H    0.975   130 H    0.972
                            51 C    0.967
    55   6 C    3.990 --    54 C    0.997   131 H    0.982   132 H    0.969
                            56 C    0.938
    56   6 C    3.941 --    58 O    1.516    57 O    1.468    55 C    0.938
    57   8 O    1.756 --    56 C    1.468    58 O    0.220
    58   8 O    1.803 --    56 C    1.516    57 O    0.220
    59   7 N    3.420 --    52 C    1.293    60 C    0.951   133 H    0.898
                            53 O    0.174
    60   6 C    3.959 --    63 C    0.980   134 H    0.961    59 N    0.951
                            61 C    0.950
    61   6 C    3.837 --    62 O    1.876   135 H    0.953    60 C    0.950
    62   8 O    1.999 --    61 C    1.876
    63   6 C    3.989 --    64 C    0.993    60 C    0.980   136 H    0.974
                           137 H    0.965
    64   6 C    3.932 --    66 C    1.568    65 N    1.247    63 C    0.993
    65   7 N    2.957 --    67 C    1.518    64 C    1.247
    66   6 C    3.900 --    64 C    1.568    68 N    1.145   138 H    0.973
                            67 C    0.117
    67   6 C    2.963 --    65 N    1.518    68 N    1.281    66 C    0.117
    68   7 N    3.511 --    67 C    1.281    66 C    1.145   139 H    0.945
    69   1 H    0.972 --     1 N    0.954
    70   1 H    0.976 --     1 N    0.961
    71   1 H    0.994 --     2 C    0.958
    72   1 H    0.998 --     3 C    0.950
    73   1 H    0.998 --     5 C    0.980
    74   1 H    0.996 --     5 C    0.974
    75   1 H    0.995 --     6 C    0.961
    76   1 H    0.994 --     6 C    0.957
    77   1 H    0.949 --     9 N    0.930
    78   1 H    0.956 --     9 N    0.931
    79   1 H    0.976 --    10 N    0.964
    80   1 H    0.974 --    10 N    0.962
    81   1 H    1.000 --    11 C    0.973
    82   1 H    0.999 --    12 C    0.956
    83   1 H    0.996 --    14 C    0.978
    84   1 H    0.997 --    14 C    0.980
    85   1 H    0.999 --    15 C    0.972
    86   1 H    0.998 --    16 C    0.989
    87   1 H    0.999 --    16 C    0.989
    88   1 H    0.998 --    16 C    0.987
    89   1 H    0.998 --    17 C    0.987
    90   1 H    0.998 --    17 C    0.985
    91   1 H    0.998 --    17 C    0.986
    92   1 H    0.979 --    18 N    0.963
    93   1 H    0.998 --    19 C    0.967
    94   1 H    0.998 --    20 C    0.956
    95   1 H    0.999 --    22 C    0.975
    96   1 H    0.998 --    22 C    0.969
    97   1 H    0.999 --    23 C    0.977
    98   1 H    0.999 --    23 C    0.973
    99   1 H    0.999 --    24 C    0.974
   100   1 H    0.999 --    24 C    0.978
   101   1 H    0.978 --    25 N    0.967
   102   1 H    0.973 --    25 N    0.960
   103   1 H    0.998 --    26 C    0.961
   104   1 H    0.995 --    29 C    0.972
   105   1 H    0.996 --    29 C    0.970
   106   1 H    0.998 --    31 C    0.970
   107   1 H    0.998 --    32 C    0.970
   108   1 H    0.997 --    33 C    0.969
   109   1 H    0.997 --    34 C    0.972
   110   1 H    0.883 --    36 O    0.865
   111   1 H    0.950 --    37 N    0.915
   112   1 H    0.993 --    38 C    0.945
   113   1 H    0.995 --    41 C    0.971
   114   1 H    0.996 --    41 C    0.974
   115   1 H    0.999 --    42 C    0.968
   116   1 H    0.998 --    43 C    0.986
   117   1 H    0.998 --    43 C    0.986
   118   1 H    0.997 --    43 C    0.985
   119   1 H    0.998 --    44 C    0.986
   120   1 H    0.998 --    44 C    0.982
   121   1 H    0.999 --    44 C    0.977
   122   1 H    0.958 --    45 N    0.927
   123   1 H    0.993 --    46 C    0.953
   124   1 H    0.997 --    49 C    0.983
   125   1 H    0.995 --    49 C    0.979
   126   1 H    0.994 --    49 C    0.976
   127   1 H    0.963 --    50 N    0.925
   128   1 H    0.993 --    51 C    0.953
   129   1 H    0.997 --    54 C    0.975
   130   1 H    0.998 --    54 C    0.972
   131   1 H    0.999 --    55 C    0.982
   132   1 H    0.999 --    55 C    0.969
   133   1 H    0.952 --    59 N    0.898
   134   1 H    0.996 --    60 C    0.961
   135   1 H    0.995 --    61 C    0.953
   136   1 H    0.997 --    63 C    0.974
   137   1 H    0.997 --    63 C    0.965
   138   1 H    0.999 --    66 C    0.973
   139   1 H    0.980 --    68 N    0.945
 ---------------------------------------------------------------------------

Topologies differ in total number of bonds
Writing topology from bond orders to xtbtopo.mol

molecular dipole:
                 x           y           z       tot (Debye)
 q only:     -202.023     -71.802      13.791
   full:     -201.954     -71.538      14.645     545.841
molecular quadrupole (traceless):
                xx          xy          yy          xz          yz          zz
 q only:   -18976.148  -10883.631    7600.655    2096.606     804.227   11375.494
  q+dip:   -18973.440  -10855.268    7620.605    2232.384     842.721   11352.834
   full:   -18973.913  -10855.183    7619.193    2230.864     842.260   11354.720


           -------------------------------------------------
          | TOTAL ENERGY             -213.916548837895 Eh   |
          | GRADIENT NORM               0.354696636870 Eh/α |
          | HOMO-LUMO GAP               0.096524130240 eV   |
           -------------------------------------------------
########################################################################
[WARNING] Runtime exception occurred
-2- restart_readRestart: Dimension missmatch in restart file.
-1- restart_readRestart: Number of electron missmatch in restart file.
########################################################################

------------------------------------------------------------------------
 * finished run on 2025/05/05 at 16:59:24.436     
------------------------------------------------------------------------
 total:
 * wall-time:     0 d,  0 h,  0 min,  0.657 sec
 *  cpu-time:     0 d,  0 h,  0 min, 19.399 sec
 * ratio c/w:    29.536 speedup
 SCF:
 * wall-time:     0 d,  0 h,  0 min,  0.645 sec
 *  cpu-time:     0 d,  0 h,  0 min, 19.133 sec
 * ratio c/w:    29.649 speedup

