      -----------------------------------------------------------      
     |                   =====================                   |     
     |                           x T B                           |     
     |                   =====================                   |     
     |                         S. Grimme                         |     
     |          Mulliken Center for Theoretical Chemistry        |     
     |                    University of Bonn                     |     
      -----------------------------------------------------------      

   * xtb version 6.7.1 (edcfbbe) compiled by 'conda@afd1a870197c' on 2025-04-11

   xtb is free software: you can redistribute it and/or modify it under
   the terms of the GNU Lesser General Public License as published by
   the Free Software Foundation, either version 3 of the License, or
   (at your option) any later version.
   
   xtb is distributed in the hope that it will be useful,
   but WITHOUT ANY WARRANTY; without even the implied warranty of
   MERCHANTABILITY or FITNESS FOR A PARTICULAR PURPOSE.  See the
   GNU Lesser General Public License for more details.
   
   Cite this work as:
   * C. Bannwarth, E. Caldeweyher, S. Ehlert, A. Hansen, P. Pracht,
     J. Seibert, S. Spicher, S. Grimme, WIREs Comput. Mol. Sci., 2020, 11,
     e01493. DOI: 10.1002/wcms.1493
   
   for GFN2-xTB:
   * C. Bannwarth, S. Ehlert and S. Grimme., J. Chem. Theory Comput., 2019,
     15, 1652-1671. DOI: 10.1021/acs.jctc.8b01176
   for GFN1-xTB:
   * S. Grimme, C. Bannwarth, P. Shushkov, J. Chem. Theory Comput., 2017,
     13, 1989-2009. DOI: 10.1021/acs.jctc.7b00118
   for GFN0-xTB:
   * P. Pracht, E. Caldeweyher, S. Ehlert, S. Grimme, ChemRxiv, 2019, preprint.
     DOI: 10.26434/chemrxiv.8326202.v1
   for GFN-FF:
   * S. Spicher and S. Grimme, Angew. Chem. Int. Ed., 2020, 59, 15665-15673.
     DOI: 10.1002/anie.202004239
   
   for ALPB and GBSA implicit solvation:
   * S. Ehlert, M. Stahn, S. Spicher, S. Grimme, J. Chem. Theory Comput.,
     2021, 17, 4250-4261. DOI: 10.1021/acs.jctc.1c00471
   
   for ddCOSMO and CPCM-X implicit solvation:
   * M. Stahn, S. Ehlert, S. Grimme, J. Phys. Chem. A,
     2023, XX, XXXX-XXXX. DOI: 10.1021/acs.jpca.3c04382
   
   for DFT-D4:
   * E. Caldeweyher, C. Bannwarth and S. Grimme, J. Chem. Phys., 2017,
     147, 034112. DOI: 10.1063/1.4993215
   * E. Caldeweyher, S. Ehlert, A. Hansen, H. Neugebauer, S. Spicher,
     C. Bannwarth and S. Grimme, J. Chem. Phys., 2019, 150, 154122.
     DOI: 10.1063/1.5090222
   * E. Caldeweyher, J.-M. Mewes, S. Ehlert and S. Grimme, Phys. Chem. Chem. Phys.
     2020, 22, 8499-8512. DOI: 10.1039/D0CP00502A
   
   for sTDA-xTB:
   * S. Grimme and C. Bannwarth, J. Chem. Phys., 2016, 145, 054103.
     DOI: 10.1063/1.4959605
   
   in the mass-spec context:
   * V. Asgeirsson, C. Bauer and S. Grimme, Chem. Sci., 2017, 8, 4879.
     DOI: 10.1039/c7sc00601b
   * J. Koopman and S. Grimme, ACS Omega 2019, 4, 12, 15120-15133.
     DOI: 10.1021/acsomega.9b02011
   
   for metadynamics refer to:
   * S. Grimme, J. Chem. Theory Comput., 2019, 155, 2847-2862
     DOI: 10.1021/acs.jctc.9b00143
   
   for SPH calculations refer to:
   * S. Spicher and S. Grimme, J. Chem. Theory Comput., 2021, 17, 1701-1714
     DOI: 10.1021/acs.jctc.0c01306
   
   for ONIOM refer to:
   * C. Plett, A. Katbashev, S. Ehlert, S. Grimme, M. Bursch,
     Phys. Chem. Chem. Phys., 2023, 25, 17860-17868. DOI: 10.1039/D3CP02178E
   
   for DIPRO refer to:
   * J. Kohn, N. Gildemeister, S. Grimme, D. Fazzi, A. Hansen,
     J. Chem. Phys., 2023, just accepted.
   
   for PTB refer to:
   * S. Grimme, M. Mueller, A. Hansen, J. Chem. Phys., 2023, 158, 124111.
     DOI: 10.1063/5.0137838
   
   with help from (in alphabetical order)
   P. Atkinson, C. Bannwarth, F. Bohle, G. Brandenburg, E. Caldeweyher
   M. Checinski, S. Dohm, S. Ehlert, S. Ehrlich, I. Gerasimov, C. Hölzer
   A. Katbashev, J. Kohn, J. Koopman, C. Lavigne, S. Lehtola, F. März, M. Müller,
   F. Musil, H. Neugebauer, J. Pisarek, C. Plett, P. Pracht, F. Pultar,
   J. Seibert, P. Shushkov, S. Spicher, M. Stahn, M. Steiner, T. Strunk,
   J. Stückrath, T. Rose, and J. Unsleber
   
 * started run on 2025/05/05 at 17:12:14.562     
   ID    Z sym.   atoms
    1    7 N      1, 9, 17, 18, 30, 38, 43, 52, 58, 61, 62
    2    6 C      2, 3, 5-8, 10, 11, 13-15, 19, 20, 22-28, 31, 32, 34-37, 39,
                  40, 42, 44, 45, 47-49, 53, 54, 56, 57, 59, 60, 63, 64, 66-68
    3    8 O      4, 12, 16, 21, 29, 33, 41, 46, 50, 51, 55, 65
    4    1 H      69-153

           -------------------------------------------------
          |                Calculation Setup                |
           -------------------------------------------------

          program call               : xtb /tmp/tmpty3346qc/HIE/input.xyz --alpb ether --chrg -2 --input /tmp/tmpty3346qc/HIE/constraints.inp --gfn 2
          hostname                   : fedora
          coordinate file            : /tmp/tmpty3346qc/HIE/input.xyz
          omp threads                :                    32


molecular fragmentation (1/2 indicates fragments):
111111112222222222222222222222222222222222222222222222222222222222222222
222111111111111122222222222222222222222222222222222222222222222222222222
222222222
# atoms in fragment 1/2:    21   132
 fragment masses (1/2) :      115.17      857.05
CMA distance (Bohr)    :  15.020
constraining FC (au)   :  0.0500
########################################################################
[WARNING] Please study the warnings concerning your input carefully
-1- readin_getIntValue: could not parse 'S'
########################################################################

           -------------------------------------------------
          |                 G F N 2 - x T B                 |
           -------------------------------------------------

        Reference                      10.1021/acs.jctc.8b01176
      * Hamiltonian:
        H0-scaling (s, p, d)           1.850000    2.230000    2.230000
        zeta-weighting                 0.500000
      * Dispersion:
        s8                             2.700000
        a1                             0.520000
        a2                             5.000000
        s9                             5.000000
      * Repulsion:
        kExp                           1.500000    1.000000
        rExp                           1.000000
      * Coulomb:
        alpha                          2.000000
        third order                    shell-resolved
        anisotropic                    true
        a3                             3.000000
        a5                             4.000000
        cn-shift                       1.200000
        cn-exp                         4.000000
        max-rad                        5.000000

      * Solvation model:               ALPB
        Solvent                        ether
        Parameter file                 internal GFN2-xTB/ALPB
        Dielectric constant                4.3300E+00
        Reference state                gsolv [1 M gas/solution]
        Free energy shift                  4.9534E-03 Eh       3.1083E+00 kcal/mol
        Temperature                        2.9815E+02 K
        Density                            7.1300E-01 kg/L
        Solvent mass                       7.4120E+01 g/mol
        Interaction kernel             P16
        Born radius scaling (c1)           1.5847E+00
        Born radii integrator          GBOBC
        Born offset                        0.0000E+00 a0       0.0000E+00 AA
        H-bond correction              true
        Ion screening                  false
        Surface tension                    1.0000E-05 Eh       1.5569E+01 dyn/cm
        Grid points                               230 per atom

          ...................................................
          :                      SETUP                      :
          :.................................................:
          :  # basis functions                 357          :
          :  # atomic orbitals                 357          :
          :  # shells                          221          :
          :  # electrons                       394          :
          :  max. iterations                   250          :
          :  Hamiltonian                  GFN2-xTB          :
          :  restarted?                      false          :
          :  GBSA solvation                   true          :
          :  PC potential                    false          :
          :  electronic temp.          300.0000000     K    :
          :  accuracy                    1.0000000          :
          :  -> integral cutoff          0.2500000E+02      :
          :  -> integral neglect         0.1000000E-07      :
          :  -> SCF convergence          0.1000000E-05 Eh   :
          :  -> wf. convergence          0.1000000E-03 e    :
          :  Broyden damping             0.4000000          :
          :  net charge                         -2          :
          :  unpaired electrons                  0          :
          ...................................................

 iter      E             dE          RMSdq      gap      omega  full diag
   1   -223.3169595 -0.223317E+03  0.426E+00    2.47       0.0  T
   2   -223.0452557  0.271704E+00  0.286E+00    0.06       1.0  T
   3   -223.6381646 -0.592909E+00  0.215E+00    1.52       1.0  T
   4   -223.9908150 -0.352650E+00  0.110E+00    1.42       1.0  T
   5   -224.0186067 -0.277917E-01  0.670E-01    0.75       1.0  T
   6   -223.3509187  0.667688E+00  0.182E+00    0.01       1.0  T
   7   -223.9901670 -0.639248E+00  0.541E-01    0.04       1.0  T
   8   -223.6684247  0.321742E+00  0.146E+00    0.04       1.0  T
   9   -224.0373782 -0.368953E+00  0.323E-01    0.26       1.0  T
  10   -224.0436660 -0.628780E-02  0.218E-01    0.10       1.0  T
  11   -224.0342959  0.937015E-02  0.330E-01    0.36       1.0  T
  12   -224.0402684 -0.597254E-02  0.265E-01    0.21       1.0  T
  13   -224.0369498  0.331860E-02  0.316E-01    0.07       1.0  T
  14   -224.0455905 -0.864068E-02  0.219E-01    0.08       1.0  T
  15   -224.0522668 -0.667628E-02  0.868E-02    0.10       1.0  T
  16   -224.0522372  0.295862E-04  0.813E-02    0.12       1.0  T
  17   -224.0494155  0.282168E-02  0.139E-01    0.10       1.0  T
  18   -224.0534104 -0.399491E-02  0.308E-02    0.11       1.0  T
  19   -224.0535520 -0.141551E-03  0.167E-02    0.12       1.0  T
  20   -224.0534041  0.147905E-03  0.311E-02    0.12       1.0  T
  21   -224.0536015 -0.197448E-03  0.676E-03    0.12       1.2  T
  22   -224.0536085 -0.703379E-05  0.347E-03    0.12       2.3  T
  23   -224.0536105 -0.201450E-05  0.155E-03    0.12       5.2  T
  24   -224.0536110 -0.455691E-06  0.456E-04    0.12      17.7  T
  25   -224.0536110 -0.381441E-07  0.151E-04    0.12      53.7  T

   *** convergence criteria satisfied after 25 iterations ***

         #    Occupation            Energy/Eh            Energy/eV
      -------------------------------------------------------------
         1        2.0000           -0.6880462             -18.7227
       ...           ...                  ...                  ...
       191        2.0000           -0.3091534              -8.4125
       192        2.0000           -0.3035626              -8.2604
       193        2.0000           -0.2854667              -7.7679
       194        2.0000           -0.2770366              -7.5385
       195        2.0000           -0.2726929              -7.4204
       196        2.0000           -0.2580341              -7.0215
       197        1.7313           -0.2352037              -6.4002 (HOMO)
       198        0.1200           -0.2308197              -6.2809 (LUMO)
       199        0.1118           -0.2307484              -6.2790
       200        0.0369           -0.2296593              -6.2493
       201                         -0.1984014              -5.3988
       202                         -0.1917027              -5.2165
       ...                                ...                  ...
       357                          0.8127512              22.1161
      -------------------------------------------------------------
                  HL-Gap            0.0043840 Eh            0.1193 eV
             Fermi-level           -0.2334339 Eh           -6.3521 eV

 SCC (total)                   0 d,  0 h,  0 min,  0.795 sec
 SCC setup                      ...        0 min,  0.002 sec (  0.230%)
 Dispersion                     ...        0 min,  0.004 sec (  0.532%)
 classical contributions        ...        0 min,  0.000 sec (  0.037%)
 integral evaluation            ...        0 min,  0.011 sec (  1.420%)
 iterations                     ...        0 min,  0.756 sec ( 95.098%)
 molecular gradient             ...        0 min,  0.020 sec (  2.534%)
 printout                       ...        0 min,  0.001 sec (  0.147%)

         :::::::::::::::::::::::::::::::::::::::::::::::::::::
         ::                     SUMMARY                     ::
         :::::::::::::::::::::::::::::::::::::::::::::::::::::
         :: total energy            -220.589582479984 Eh    ::
         :: total w/o Gsasa/hb      -220.530082267172 Eh    ::
         :: gradient norm              0.795932432317 Eh/a0 ::
         :: HOMO-LUMO gap              0.119295789484 eV    ::
         ::.................................................::
         :: SCC energy              -224.040462541497 Eh    ::
         :: -> isotropic ES            0.853449604054 Eh    ::
         :: -> anisotropic ES          0.051359458428 Eh    ::
         :: -> anisotropic XC          0.114987755541 Eh    ::
         :: -> dispersion             -0.180951558098 Eh    ::
         :: -> Gsolv                  -0.293427332512 Eh    ::
         ::    -> Gelec               -0.233927119701 Eh    ::
         ::    -> Gsasa               -0.055984460668 Eh    ::
         ::    -> Ghb                 -0.008469189721 Eh    ::
         ::    -> Gshift               0.004953437577 Eh    ::
         :: repulsion energy           3.450880061513 Eh    ::
         :: add. restraining           0.000000000000 Eh    ::
         :: total charge              -2.000000000046 e     ::
         :::::::::::::::::::::::::::::::::::::::::::::::::::::

           -------------------------------------------------
          |                Property Printout                |
           -------------------------------------------------

    * Orbital Energies and Occupations

         #    Occupation            Energy/Eh            Energy/eV
      -------------------------------------------------------------
         1        2.0000           -0.6880462             -18.7227
       ...           ...                  ...                  ...
       185        2.0000           -0.3469202              -9.4402
       186        2.0000           -0.3427844              -9.3276
       187        2.0000           -0.3351661              -9.1203
       188        2.0000           -0.3345707              -9.1041
       189        2.0000           -0.3341821              -9.0936
       190        2.0000           -0.3306408              -8.9972
       191        2.0000           -0.3091534              -8.4125
       192        2.0000           -0.3035626              -8.2604
       193        2.0000           -0.2854667              -7.7679
       194        2.0000           -0.2770366              -7.5385
       195        2.0000           -0.2726929              -7.4204
       196        2.0000           -0.2580341              -7.0215
       197        1.7313           -0.2352037              -6.4002 (HOMO)
       198        0.1200           -0.2308197              -6.2809 (LUMO)
       199        0.1118           -0.2307484              -6.2790
       200        0.0369           -0.2296593              -6.2493
       201                         -0.1984014              -5.3988
       202                         -0.1917027              -5.2165
       203                         -0.1903124              -5.1787
       204                         -0.1818207              -4.9476
       205                         -0.1794059              -4.8819
       206                         -0.1775482              -4.8313
       207                         -0.1602683              -4.3611
       208                         -0.1450660              -3.9474
       ...                                ...                  ...
       357                          0.8127512              22.1161
      -------------------------------------------------------------
                  HL-Gap            0.0043840 Eh            0.1193 eV
             Fermi-level           -0.2334339 Eh           -6.3521 eV

     #   Z          covCN         q      C6AA      α(0)
     1   7 N        2.633    -0.371    29.581     8.078
     2   6 C        3.781     0.031    20.080     6.384
     3   6 C        2.765     0.179    24.141     8.046
     4   8 O        0.856    -0.393    21.546     6.223
     5   6 C        3.806    -0.073    21.895     6.661
     6   6 C        3.829    -0.016    20.848     6.497
     7   6 C        3.732    -0.121    22.909     6.832
     8   6 C        3.760    -0.116    22.763     6.802
     9   7 N        2.631    -0.374    29.668     8.089
    10   6 C        3.789     0.041    19.900     6.353
    11   6 C        2.765     0.190    23.928     8.011
    12   8 O        0.857    -0.397    21.620     6.234
    13   6 C        3.804    -0.070    21.844     6.654
    14   6 C        3.808    -0.101    22.416     6.740
    15   6 C        2.746     0.282    22.227     7.720
    16   8 O        0.858    -0.529    24.443     6.629
    17   7 N        2.644    -0.256    26.659     7.668
    18   7 N        2.632    -0.371    29.577     8.077
    19   6 C        3.784     0.026    20.149     6.394
    20   6 C        2.760     0.267    22.494     7.767
    21   8 O        0.860    -0.494    23.641     6.519
    22   6 C        3.814    -0.072    21.857     6.654
    23   6 C        2.965    -0.019    28.485     8.754
    24   6 C        2.924    -0.041    29.021     8.834
    25   6 C        2.918    -0.046    29.136     8.852
    26   6 C        2.910    -0.058    29.434     8.896
    27   6 C        2.916    -0.058    29.432     8.896
    28   6 C        2.854     0.143    24.889     8.177
    29   8 O        1.661    -0.436    21.552     6.267
    30   7 N        2.686    -0.181    24.911     7.413
    31   6 C        3.797     0.022    20.207     6.401
    32   6 C        2.747     0.276    22.335     7.738
    33   8 O        0.859    -0.487    23.501     6.500
    34   6 C        3.808    -0.080    22.012     6.679
    35   6 C        3.849    -0.016    20.821     6.490
    36   6 C        3.762    -0.123    22.903     6.822
    37   6 C        3.759    -0.123    22.911     6.824
    38   7 N        2.686    -0.187    25.057     7.434
    39   6 C        3.789     0.026    20.150     6.393
    40   6 C        2.748     0.273    22.390     7.748
    41   8 O        0.860    -0.491    23.579     6.510
    42   6 C        3.764    -0.132    23.069     6.846
    43   7 N        2.683    -0.183    24.961     7.420
    44   6 C        3.794     0.029    20.095     6.384
    45   6 C        2.770     0.282    22.222     7.720
    46   8 O        0.862    -0.504    23.866     6.550
    47   6 C        3.819    -0.046    21.375     6.580
    48   6 C        3.811    -0.085    22.104     6.692
    49   6 C        2.690     0.356    20.952     7.491
    50   8 O        0.856    -0.649    27.346     7.011
    51   8 O        0.857    -0.650    27.372     7.014
    52   7 N        2.693    -0.163    24.529     7.356
    53   6 C        3.809     0.025    20.139     6.388
    54   6 C        2.746     0.277    22.314     7.735
    55   8 O        0.858    -0.472    23.164     6.453
    56   6 C        3.807    -0.054    21.543     6.607
    57   6 C        3.071     0.023    27.416     8.585
    58   7 N        1.982    -0.420    31.875     8.373
    59   6 C        3.042    -0.045    29.072     8.843
    60   6 C        2.085    -0.153    35.223     9.588
    61   7 N        2.832    -0.139    24.002     7.276
    62   7 N        2.692    -0.194    25.216     7.458
    63   6 C        3.779     0.024    20.198     6.403
    64   6 C        2.770     0.201    23.714     7.975
    65   8 O        0.856    -0.377    21.227     6.177
    66   6 C        3.846    -0.016    20.821     6.491
    67   6 C        3.756    -0.117    22.797     6.808
    68   6 C        3.754    -0.119    22.834     6.814
    69   1 H        0.980    -0.005     3.137     2.767
    70   1 H        0.980     0.010     2.882     2.653
    71   1 H        0.980    -0.015     3.318     2.846
    72   1 H        0.980    -0.013     3.287     2.833
    73   1 H        0.980     0.007     2.926     2.673
    74   1 H        0.980     0.007     2.924     2.672
    75   1 H        0.980    -0.015     3.322     2.848
    76   1 H        0.860     0.158     1.346     1.818
    77   1 H        0.860     0.151     1.392     1.849
    78   1 H        0.927     0.062     2.174     2.306
    79   1 H        0.929     0.041     2.432     2.438
    80   1 H        0.927     0.050     2.315     2.379
    81   1 H        0.926     0.029     2.604     2.524
    82   1 H        0.927     0.028     2.621     2.532
    83   1 H        0.927     0.038     2.479     2.462
    84   1 H        0.926     0.036     2.496     2.471
    85   1 H        0.927     0.042     2.420     2.433
    86   1 H        0.927     0.040     2.455     2.450
    87   1 H        0.927     0.040     2.446     2.445
    88   1 H        0.927     0.041     2.439     2.442
    89   1 H        0.860     0.151     1.395     1.850
    90   1 H        0.860     0.163     1.317     1.798
    91   1 H        0.927     0.035     2.521     2.483
    92   1 H        0.929     0.037     2.482     2.464
    93   1 H        0.927     0.049     2.330     2.387
    94   1 H        0.927     0.075     2.033     2.230
    95   1 H        0.927     0.071     2.071     2.250
    96   1 H        0.927     0.077     2.009     2.216
    97   1 H        0.861     0.225     0.989     1.557
    98   1 H        0.861     0.212     1.045     1.601
    99   1 H        0.860     0.168     1.283     1.774
   100   1 H        0.860     0.153     1.383     1.842
   101   1 H        0.926     0.069     2.093     2.262
   102   1 H        0.926     0.046     2.373     2.409
   103   1 H        0.927     0.050     2.320     2.382
   104   1 H        0.929     0.045     2.381     2.413
   105   1 H        0.929     0.042     2.423     2.434
   106   1 H        0.929     0.048     2.343     2.394
   107   1 H        0.929     0.045     2.382     2.413
   108   1 H        0.807     0.329     0.640     1.256
   109   1 H        0.861     0.204     1.088     1.634
   110   1 H        0.927     0.077     2.006     2.215
   111   1 H        0.927     0.066     2.126     2.280
   112   1 H        0.927     0.055     2.262     2.352
   113   1 H        0.927     0.032     2.561     2.503
   114   1 H        0.927     0.047     2.354     2.399
   115   1 H        0.927     0.042     2.424     2.435
   116   1 H        0.927     0.051     2.309     2.376
   117   1 H        0.927     0.041     2.437     2.441
   118   1 H        0.927     0.050     2.323     2.383
   119   1 H        0.927     0.036     2.499     2.472
   120   1 H        0.861     0.210     1.058     1.612
   121   1 H        0.927     0.085     1.925     2.169
   122   1 H        0.926     0.061     2.184     2.311
   123   1 H        0.926     0.073     2.050     2.239
   124   1 H        0.927     0.072     2.068     2.249
   125   1 H        0.861     0.198     1.114     1.653
   126   1 H        0.926     0.074     2.037     2.232
   127   1 H        0.927     0.057     2.234     2.337
   128   1 H        0.927     0.047     2.358     2.401
   129   1 H        0.927     0.038     2.482     2.464
   130   1 H        0.927     0.027     2.623     2.533
   131   1 H        0.861     0.216     1.026     1.587
   132   1 H        0.927     0.079     1.986     2.204
   133   1 H        0.926     0.037     2.493     2.469
   134   1 H        0.927     0.033     2.537     2.491
   135   1 H        0.929    -0.042     3.909     3.092
   136   1 H        0.861     0.194     1.136     1.670
   137   1 H        0.926     0.089     1.892     2.151
   138   1 H        0.929     0.077     2.007     2.215
   139   1 H        0.927     0.052     2.300     2.371
   140   1 H        0.927     0.055     2.257     2.349
   141   1 H        0.927     0.045     2.380     2.412
   142   1 H        0.927     0.050     2.314     2.379
   143   1 H        0.927     0.055     2.261     2.351
   144   1 H        0.927     0.049     2.330     2.387
   145   1 H        0.927     0.039     2.461     2.453
   146   1 H        0.980     0.005     2.958     2.688
   147   1 H        0.980    -0.009     3.203     2.797
   148   1 H        0.980     0.016     2.792     2.611
   149   1 H        0.980     0.012     2.846     2.636
   150   1 H        0.980    -0.007     3.178     2.786
   151   1 H        0.980    -0.008     3.199     2.795
   152   1 H        0.980     0.017     2.769     2.600
   153   1 H        0.858     0.118     1.640     2.006

 Mol. C6AA /au·bohr⁶  :     208810.340666
 Mol. C8AA /au·bohr⁸  :    4529158.516438
 Mol. α(0) /au        :        689.146238


Wiberg/Mayer (AO) data.
largest (>0.10) Wiberg bond orders for each atom

 ---------------------------------------------------------------------------
     #   Z sym  total        # sym  WBO       # sym  WBO       # sym  WBO
 ---------------------------------------------------------------------------
     1   7 N    3.002 --     2 C    1.024    77 H    0.962    76 H    0.956
     2   6 C    3.985 --     1 N    1.024     3 C    0.978     5 C    0.960
                            78 H    0.932
     3   6 C    3.797 --     4 O    1.820     2 C    0.978    79 H    0.949
     4   8 O    1.959 --     3 C    1.820
     5   6 C    3.990 --     6 C    1.001    81 H    0.980    80 H    0.971
                             2 C    0.960
     6   6 C    3.994 --     8 C    1.019     5 C    1.001     7 C    0.984
                            82 H    0.973
     7   6 C    3.994 --    84 H    0.992    83 H    0.990    85 H    0.990
                             6 C    0.984
     8   6 C    3.996 --     6 C    1.019    87 H    0.985    86 H    0.984
                            88 H    0.974
     9   7 N    2.984 --    10 C    1.012    89 H    0.963    90 H    0.958
    10   6 C    3.988 --     9 N    1.012    11 C    0.974    13 C    0.970
                            91 H    0.953
    11   6 C    3.798 --    12 O    1.822    10 C    0.974    92 H    0.948
    12   8 O    1.958 --    11 C    1.822
    13   6 C    3.987 --    14 C    0.994    93 H    0.976    10 C    0.970
                            94 H    0.955
    14   6 C    3.994 --    13 C    0.994    15 C    0.984    96 H    0.966
                            95 H    0.955
    15   6 C    3.948 --    16 O    1.597    17 N    1.342    14 C    0.984
    16   8 O    1.899 --    15 C    1.597    17 N    0.202
    17   7 N    3.438 --    15 C    1.342    98 H    0.914    97 H    0.905
                            16 O    0.202
    18   7 N    3.002 --    19 C    1.018    99 H    0.956   100 H    0.953
    19   6 C    3.979 --    18 N    1.018    22 C    0.950   101 H    0.947
                            20 C    0.939
    20   6 C    3.938 --    21 O    1.638    30 N    1.288    19 C    0.939
    21   8 O    1.971 --    20 C    1.638    30 N    0.190
    22   6 C    3.996 --    23 C    1.013   102 H    0.971   103 H    0.969
                            19 C    0.950
    23   6 C    3.984 --    24 C    1.392    25 C    1.387    22 C    1.013
                            28 C    0.112
    24   6 C    3.991 --    26 C    1.458    23 C    1.392   104 H    0.967
                            27 C    0.106
    25   6 C    3.993 --    27 C    1.500    23 C    1.387   105 H    0.966
    26   6 C    3.991 --    24 C    1.458    28 C    1.394   106 H    0.963
    27   6 C    3.988 --    25 C    1.500    28 C    1.321   107 H    0.969
                            24 C    0.106
    28   6 C    3.929 --    26 C    1.394    27 C    1.321    29 O    1.062
                            23 C    0.112
    29   8 O    2.087 --    28 C    1.062   108 H    0.871
    30   7 N    3.450 --    20 C    1.288    31 C    0.970   109 H    0.920
                            21 O    0.190
    31   6 C    3.959 --    34 C    0.978    30 N    0.970   110 H    0.950
                            32 C    0.925
    32   6 C    3.947 --    33 O    1.649    38 N    1.300    31 C    0.925
    33   8 O    1.965 --    32 C    1.649    38 N    0.196
    34   6 C    3.987 --    35 C    0.994    31 C    0.978   112 H    0.974
                           111 H    0.972
    35   6 C    3.995 --    36 C    1.009    37 C    1.003    34 C    0.994
                           113 H    0.970
    36   6 C    3.994 --    35 C    1.009   114 H    0.987   115 H    0.986
                           116 H    0.985
    37   6 C    3.995 --    35 C    1.003   117 H    0.986   119 H    0.982
                           118 H    0.975
    38   7 N    3.454 --    32 C    1.300    39 C    0.957   120 H    0.925
                            33 O    0.196
    39   6 C    3.960 --    42 C    1.008    38 N    0.957   121 H    0.957
                            40 C    0.925
    40   6 C    3.946 --    41 O    1.631    43 N    1.313    39 C    0.925
    41   8 O    1.961 --    40 C    1.631    43 N    0.202
    42   6 C    3.986 --    39 C    1.008   122 H    0.982   123 H    0.979
                           124 H    0.978
    43   7 N    3.475 --    40 C    1.313    44 C    0.957   125 H    0.930
                            41 O    0.202
    44   6 C    3.955 --    47 C    0.978    43 N    0.957   126 H    0.952
                            45 C    0.936
    45   6 C    3.952 --    46 O    1.617    52 N    1.317    44 C    0.936
    46   8 O    1.940 --    45 C    1.617    52 N    0.196
    47   6 C    3.990 --    48 C    1.007    44 C    0.978   128 H    0.970
                           127 H    0.969
    48   6 C    3.992 --    47 C    1.007   130 H    0.971   129 H    0.962
                            49 C    0.943
    49   6 C    3.941 --    50 O    1.491    51 O    1.486    48 C    0.943
    50   8 O    1.784 --    49 C    1.491    51 O    0.221
    51   8 O    1.772 --    49 C    1.486    50 O    0.221
    52   7 N    3.490 --    45 C    1.317    53 C    0.979   131 H    0.903
                            46 O    0.196
    53   6 C    3.959 --    52 N    0.979    56 C    0.968    54 C    0.942
                           132 H    0.929
    54   6 C    3.947 --    55 O    1.659    62 N    1.259    53 C    0.942
    55   8 O    1.955 --    54 C    1.659    62 N    0.169
    56   6 C    3.987 --    57 C    0.999   133 H    0.973   134 H    0.971
                            53 C    0.968
    57   6 C    3.945 --    59 C    1.575    58 N    1.244    56 C    0.999
    58   7 N    2.929 --    60 C    1.506    57 C    1.244
    59   6 C    3.914 --    57 C    1.575    61 N    1.150   135 H    0.971
                            60 C    0.115
    60   6 C    2.935 --    58 N    1.506    61 N    1.257    59 C    0.115
    61   7 N    3.502 --    60 C    1.257    59 C    1.150   153 H    0.950
    62   7 N    3.403 --    54 C    1.259    63 C    0.969   136 H    0.916
                            55 O    0.169
    63   6 C    3.959 --    64 C    0.985    62 N    0.969   137 H    0.950
                            66 C    0.932
    64   6 C    3.860 --    65 O    1.867    63 C    0.985   138 H    0.941
    65   8 O    2.007 --    64 C    1.867
    66   6 C    3.983 --    67 C    1.008    68 C    1.006   139 H    0.968
                            63 C    0.932
    67   6 C    3.994 --    66 C    1.008   140 H    0.986   141 H    0.985
                           142 H    0.984
    68   6 C    3.994 --    66 C    1.006   144 H    0.986   143 H    0.985
                           145 H    0.984
    69   1 H    1.000 --   146 H    0.992
    70   1 H    1.000 --   147 H    0.979
    71   1 H    1.000 --   148 H    0.974
    72   1 H    1.000 --   149 H    0.979
    73   1 H    1.000 --   150 H    0.982
    74   1 H    1.000 --   151 H    0.974
    75   1 H    1.000 --   152 H    0.971
    76   1 H    0.975 --     1 N    0.956
    77   1 H    0.977 --     1 N    0.962
    78   1 H    0.991 --     2 C    0.932
    79   1 H    0.998 --     3 C    0.949
    80   1 H    0.997 --     5 C    0.971
    81   1 H    0.999 --     5 C    0.980
    82   1 H    0.999 --     6 C    0.973
    83   1 H    0.999 --     7 C    0.990
    84   1 H    0.999 --     7 C    0.992
    85   1 H    0.998 --     7 C    0.990
    86   1 H    0.998 --     8 C    0.984
    87   1 H    0.998 --     8 C    0.985
    88   1 H    0.998 --     8 C    0.974
    89   1 H    0.977 --     9 N    0.963
    90   1 H    0.973 --     9 N    0.958
    91   1 H    0.997 --    10 C    0.953
    92   1 H    0.999 --    11 C    0.948
    93   1 H    0.998 --    13 C    0.976
    94   1 H    0.994 --    13 C    0.955
    95   1 H    0.995 --    14 C    0.955
    96   1 H    0.994 --    14 C    0.966
    97   1 H    0.949 --    17 N    0.905
    98   1 H    0.955 --    17 N    0.914
    99   1 H    0.971 --    18 N    0.956
   100   1 H    0.977 --    18 N    0.953
   101   1 H    0.995 --    19 C    0.947
   102   1 H    0.997 --    22 C    0.971
   103   1 H    0.997 --    22 C    0.969
   104   1 H    0.998 --    24 C    0.967
   105   1 H    0.998 --    25 C    0.966
   106   1 H    0.997 --    26 C    0.963
   107   1 H    0.998 --    27 C    0.969
   108   1 H    0.891 --    29 O    0.871
   109   1 H    0.959 --    30 N    0.920
   110   1 H    0.994 --    31 C    0.950
   111   1 H    0.995 --    34 C    0.972
   112   1 H    0.997 --    34 C    0.974
   113   1 H    0.999 --    35 C    0.970
   114   1 H    0.998 --    36 C    0.987
   115   1 H    0.998 --    36 C    0.986
   116   1 H    0.997 --    36 C    0.985
   117   1 H    0.998 --    37 C    0.986
   118   1 H    0.997 --    37 C    0.975
   119   1 H    0.999 --    37 C    0.982
   120   1 H    0.956 --    38 N    0.925
   121   1 H    0.992 --    39 C    0.957
   122   1 H    0.996 --    42 C    0.982
   123   1 H    0.994 --    42 C    0.979
   124   1 H    0.994 --    42 C    0.978
   125   1 H    0.961 --    43 N    0.930
   126   1 H    0.994 --    44 C    0.952
   127   1 H    0.996 --    47 C    0.969
   128   1 H    0.998 --    47 C    0.970
   129   1 H    0.998 --    48 C    0.962
   130   1 H    0.999 --    48 C    0.971
   131   1 H    0.953 --    52 N    0.903
   132   1 H    0.993 --    53 C    0.929
   133   1 H    0.997 --    56 C    0.973
   134   1 H    0.999 --    56 C    0.971
   135   1 H    0.998 --    59 C    0.971
   136   1 H    0.962 --    62 N    0.916
   137   1 H    0.991 --    63 C    0.950
   138   1 H    0.994 --    64 C    0.941
   139   1 H    0.997 --    66 C    0.968
   140   1 H    0.997 --    67 C    0.986
   141   1 H    0.998 --    67 C    0.985
   142   1 H    0.997 --    67 C    0.984
   143   1 H    0.997 --    68 C    0.985
   144   1 H    0.997 --    68 C    0.986
   145   1 H    0.998 --    68 C    0.984
   146   1 H    1.000 --    69 H    0.992
   147   1 H    1.000 --    70 H    0.979
   148   1 H    1.000 --    71 H    0.974
   149   1 H    1.000 --    72 H    0.979
   150   1 H    1.000 --    73 H    0.982
   151   1 H    1.000 --    74 H    0.974
   152   1 H    1.000 --    75 H    0.971
   153   1 H    0.986 --    61 N    0.950
 ---------------------------------------------------------------------------

Topologies differ in total number of bonds
Writing topology from bond orders to xtbtopo.mol

molecular dipole:
                 x           y           z       tot (Debye)
 q only:      266.083     208.023      80.732
   full:      266.888     208.178      79.704     883.856
molecular quadrupole (traceless):
                xx          xy          yy          xz          yz          zz
 q only:   -23042.643  -41473.910   -2161.445  -16123.108  -12559.781   25204.088
  q+dip:   -23288.343  -41632.554   -2120.028  -15975.481  -12405.012   25408.371
   full:   -23291.840  -41632.990   -2118.766  -15975.695  -12405.029   25410.605


           -------------------------------------------------
          | TOTAL ENERGY             -220.589582479984 Eh   |
          | GRADIENT NORM               0.795932432317 Eh/α |
          | HOMO-LUMO GAP               0.119295789484 eV   |
           -------------------------------------------------
########################################################################
[WARNING] Runtime exception occurred
-2- restart_readRestart: Dimension missmatch in restart file.
-1- restart_readRestart: Number of electron missmatch in restart file.
########################################################################

------------------------------------------------------------------------
 * finished run on 2025/05/05 at 17:12:15.371     
------------------------------------------------------------------------
 total:
 * wall-time:     0 d,  0 h,  0 min,  0.809 sec
 *  cpu-time:     0 d,  0 h,  0 min, 22.065 sec
 * ratio c/w:    27.277 speedup
 SCF:
 * wall-time:     0 d,  0 h,  0 min,  0.796 sec
 *  cpu-time:     0 d,  0 h,  0 min, 21.758 sec
 * ratio c/w:    27.343 speedup

