      -----------------------------------------------------------      
     |                   =====================                   |     
     |                           x T B                           |     
     |                   =====================                   |     
     |                         S. Grimme                         |     
     |          Mulliken Center for Theoretical Chemistry        |     
     |                    University of Bonn                     |     
      -----------------------------------------------------------      

   * xtb version 6.7.1 (edcfbbe) compiled by 'conda@afd1a870197c' on 2025-04-11

   xtb is free software: you can redistribute it and/or modify it under
   the terms of the GNU Lesser General Public License as published by
   the Free Software Foundation, either version 3 of the License, or
   (at your option) any later version.
   
   xtb is distributed in the hope that it will be useful,
   but WITHOUT ANY WARRANTY; without even the implied warranty of
   MERCHANTABILITY or FITNESS FOR A PARTICULAR PURPOSE.  See the
   GNU Lesser General Public License for more details.
   
   Cite this work as:
   * C. Bannwarth, E. Caldeweyher, S. Ehlert, A. Hansen, P. Pracht,
     J. Seibert, S. Spicher, S. Grimme, WIREs Comput. Mol. Sci., 2020, 11,
     e01493. DOI: 10.1002/wcms.1493
   
   for GFN2-xTB:
   * C. Bannwarth, S. Ehlert and S. Grimme., J. Chem. Theory Comput., 2019,
     15, 1652-1671. DOI: 10.1021/acs.jctc.8b01176
   for GFN1-xTB:
   * S. Grimme, C. Bannwarth, P. Shushkov, J. Chem. Theory Comput., 2017,
     13, 1989-2009. DOI: 10.1021/acs.jctc.7b00118
   for GFN0-xTB:
   * P. Pracht, E. Caldeweyher, S. Ehlert, S. Grimme, ChemRxiv, 2019, preprint.
     DOI: 10.26434/chemrxiv.8326202.v1
   for GFN-FF:
   * S. Spicher and S. Grimme, Angew. Chem. Int. Ed., 2020, 59, 15665-15673.
     DOI: 10.1002/anie.202004239
   
   for ALPB and GBSA implicit solvation:
   * S. Ehlert, M. Stahn, S. Spicher, S. Grimme, J. Chem. Theory Comput.,
     2021, 17, 4250-4261. DOI: 10.1021/acs.jctc.1c00471
   
   for ddCOSMO and CPCM-X implicit solvation:
   * M. Stahn, S. Ehlert, S. Grimme, J. Phys. Chem. A,
     2023, XX, XXXX-XXXX. DOI: 10.1021/acs.jpca.3c04382
   
   for DFT-D4:
   * E. Caldeweyher, C. Bannwarth and S. Grimme, J. Chem. Phys., 2017,
     147, 034112. DOI: 10.1063/1.4993215
   * E. Caldeweyher, S. Ehlert, A. Hansen, H. Neugebauer, S. Spicher,
     C. Bannwarth and S. Grimme, J. Chem. Phys., 2019, 150, 154122.
     DOI: 10.1063/1.5090222
   * E. Caldeweyher, J.-M. Mewes, S. Ehlert and S. Grimme, Phys. Chem. Chem. Phys.
     2020, 22, 8499-8512. DOI: 10.1039/D0CP00502A
   
   for sTDA-xTB:
   * S. Grimme and C. Bannwarth, J. Chem. Phys., 2016, 145, 054103.
     DOI: 10.1063/1.4959605
   
   in the mass-spec context:
   * V. Asgeirsson, C. Bauer and S. Grimme, Chem. Sci., 2017, 8, 4879.
     DOI: 10.1039/c7sc00601b
   * J. Koopman and S. Grimme, ACS Omega 2019, 4, 12, 15120-15133.
     DOI: 10.1021/acsomega.9b02011
   
   for metadynamics refer to:
   * S. Grimme, J. Chem. Theory Comput., 2019, 155, 2847-2862
     DOI: 10.1021/acs.jctc.9b00143
   
   for SPH calculations refer to:
   * S. Spicher and S. Grimme, J. Chem. Theory Comput., 2021, 17, 1701-1714
     DOI: 10.1021/acs.jctc.0c01306
   
   for ONIOM refer to:
   * C. Plett, A. Katbashev, S. Ehlert, S. Grimme, M. Bursch,
     Phys. Chem. Chem. Phys., 2023, 25, 17860-17868. DOI: 10.1039/D3CP02178E
   
   for DIPRO refer to:
   * J. Kohn, N. Gildemeister, S. Grimme, D. Fazzi, A. Hansen,
     J. Chem. Phys., 2023, just accepted.
   
   for PTB refer to:
   * S. Grimme, M. Mueller, A. Hansen, J. Chem. Phys., 2023, 158, 124111.
     DOI: 10.1063/5.0137838
   
   with help from (in alphabetical order)
   P. Atkinson, C. Bannwarth, F. Bohle, G. Brandenburg, E. Caldeweyher
   M. Checinski, S. Dohm, S. Ehlert, S. Ehrlich, I. Gerasimov, C. Hölzer
   A. Katbashev, J. Kohn, J. Koopman, C. Lavigne, S. Lehtola, F. März, M. Müller,
   F. Musil, H. Neugebauer, J. Pisarek, C. Plett, P. Pracht, F. Pultar,
   J. Seibert, P. Shushkov, S. Spicher, M. Stahn, M. Steiner, T. Strunk,
   J. Stückrath, T. Rose, and J. Unsleber
   
 * started run on 2025/05/05 at 17:12:13.632     
   ID    Z sym.   atoms
    1    7 N      1, 9, 17, 18, 30, 38, 43, 52, 58, 61, 62
    2    6 C      2, 3, 5-8, 10, 11, 13-15, 19, 20, 22-28, 31, 32, 34-37, 39,
                  40, 42, 44, 45, 47-49, 53, 54, 56, 57, 59, 60, 63, 64, 66-68
    3    8 O      4, 12, 16, 21, 29, 33, 41, 46, 50, 51, 55, 65
    4    1 H      69-153

           -------------------------------------------------
          |                Calculation Setup                |
           -------------------------------------------------

          program call               : xtb /tmp/tmpty3346qc/HID/input.xyz --alpb ether --chrg -2 --input /tmp/tmpty3346qc/HID/constraints.inp --gfn 2
          hostname                   : fedora
          coordinate file            : /tmp/tmpty3346qc/HID/input.xyz
          omp threads                :                    32


molecular fragmentation (1/2 indicates fragments):
111111112222222222222222222222222222222222222222222222222222222222222222
222111111111111122222222222222222222222222222222222222222222222222222222
222222222
# atoms in fragment 1/2:    21   132
 fragment masses (1/2) :      115.17      857.05
CMA distance (Bohr)    :  15.025
constraining FC (au)   :  0.0500
########################################################################
[WARNING] Please study the warnings concerning your input carefully
-1- readin_getIntValue: could not parse 'S'
########################################################################

           -------------------------------------------------
          |                 G F N 2 - x T B                 |
           -------------------------------------------------

        Reference                      10.1021/acs.jctc.8b01176
      * Hamiltonian:
        H0-scaling (s, p, d)           1.850000    2.230000    2.230000
        zeta-weighting                 0.500000
      * Dispersion:
        s8                             2.700000
        a1                             0.520000
        a2                             5.000000
        s9                             5.000000
      * Repulsion:
        kExp                           1.500000    1.000000
        rExp                           1.000000
      * Coulomb:
        alpha                          2.000000
        third order                    shell-resolved
        anisotropic                    true
        a3                             3.000000
        a5                             4.000000
        cn-shift                       1.200000
        cn-exp                         4.000000
        max-rad                        5.000000

      * Solvation model:               ALPB
        Solvent                        ether
        Parameter file                 internal GFN2-xTB/ALPB
        Dielectric constant                4.3300E+00
        Reference state                gsolv [1 M gas/solution]
        Free energy shift                  4.9534E-03 Eh       3.1083E+00 kcal/mol
        Temperature                        2.9815E+02 K
        Density                            7.1300E-01 kg/L
        Solvent mass                       7.4120E+01 g/mol
        Interaction kernel             P16
        Born radius scaling (c1)           1.5847E+00
        Born radii integrator          GBOBC
        Born offset                        0.0000E+00 a0       0.0000E+00 AA
        H-bond correction              true
        Ion screening                  false
        Surface tension                    1.0000E-05 Eh       1.5569E+01 dyn/cm
        Grid points                               230 per atom

          ...................................................
          :                      SETUP                      :
          :.................................................:
          :  # basis functions                 357          :
          :  # atomic orbitals                 357          :
          :  # shells                          221          :
          :  # electrons                       394          :
          :  max. iterations                   250          :
          :  Hamiltonian                  GFN2-xTB          :
          :  restarted?                      false          :
          :  GBSA solvation                   true          :
          :  PC potential                    false          :
          :  electronic temp.          300.0000000     K    :
          :  accuracy                    1.0000000          :
          :  -> integral cutoff          0.2500000E+02      :
          :  -> integral neglect         0.1000000E-07      :
          :  -> SCF convergence          0.1000000E-05 Eh   :
          :  -> wf. convergence          0.1000000E-03 e    :
          :  Broyden damping             0.4000000          :
          :  net charge                         -2          :
          :  unpaired electrons                  0          :
          ...................................................

 iter      E             dE          RMSdq      gap      omega  full diag
   1   -223.3269206 -0.223327E+03  0.426E+00    2.48       0.0  T
   2   -222.8858210  0.441100E+00  0.301E+00    0.12       1.0  T
   3   -223.6473412 -0.761520E+00  0.216E+00    0.37       1.0  T
   4   -223.9951513 -0.347810E+00  0.114E+00    0.52       1.0  T
   5   -224.0209102 -0.257590E-01  0.708E-01    0.59       1.0  T
   6   -223.2791721  0.741738E+00  0.189E+00    0.06       1.0  T
   7   -223.2885017 -0.932957E-02  0.204E+00    0.10       1.0  T
   8   -223.4974974 -0.208996E+00  0.160E+00    0.03       1.0  T
   9   -224.0390521 -0.541555E+00  0.448E-01    0.61       1.0  T
  10   -224.0428373 -0.378511E-02  0.358E-01    0.56       1.0  T
  11   -224.0463061 -0.346880E-02  0.303E-01    0.09       1.0  T
  12   -224.0423271  0.397894E-02  0.348E-01    0.55       1.0  T
  13   -224.0442199 -0.189274E-02  0.322E-01    0.45       1.0  T
  14   -224.0467688 -0.254895E-02  0.291E-01    0.29       1.0  T
  15   -224.0469119 -0.143082E-03  0.289E-01    0.28       1.0  T
  16   -224.0568666 -0.995475E-02  0.173E-01    0.14       1.0  T
  17   -224.0613287 -0.446203E-02  0.856E-02    0.13       1.0  T
  18   -223.8570631  0.204266E+00  0.990E-01    0.01       1.0  T
  19   -224.0547389 -0.197676E+00  0.202E-01    0.16       1.0  T
  20   -224.0561269 -0.138805E-02  0.181E-01    0.18       1.0  T
  21   -224.0619139 -0.578700E-02  0.640E-02    0.14       1.0  T
  22   -224.0623481 -0.434202E-03  0.446E-02    0.13       1.0  T
  23   -224.0627184 -0.370228E-03  0.165E-02    0.12       1.0  T
  24   -224.0627452 -0.268016E-04  0.107E-02    0.12       1.0  T
  25   -224.0627589 -0.137603E-04  0.757E-03    0.12       1.1  T
  26   -224.0627652 -0.622905E-05  0.466E-03    0.12       1.7  T
  27   -224.0627672 -0.205855E-05  0.307E-03    0.12       2.6  T
  28   -224.0627678 -0.604896E-06  0.224E-03    0.12       3.6  T
  29   -224.0627688 -0.942169E-06  0.447E-04    0.12      18.1  T
  30   -224.0627688 -0.280922E-07  0.200E-04    0.12      40.5  T

   *** convergence criteria satisfied after 30 iterations ***

         #    Occupation            Energy/Eh            Energy/eV
      -------------------------------------------------------------
         1        2.0000           -0.6914648             -18.8157
       ...           ...                  ...                  ...
       191        2.0000           -0.3140241              -8.5450
       192        2.0000           -0.3095082              -8.4221
       193        2.0000           -0.2914744              -7.9314
       194        2.0000           -0.2840239              -7.7287
       195        2.0000           -0.2703188              -7.3557
       196        2.0000           -0.2633135              -7.1651
       197        1.7335           -0.2352337              -6.4010 (HOMO)
       198        0.1145           -0.2307934              -6.2802 (LUMO)
       199        0.0923           -0.2305772              -6.2743
       200        0.0597           -0.2301477              -6.2626
       201                         -0.2118026              -5.7634
       202                         -0.1996365              -5.4324
       ...                                ...                  ...
       357                          0.8112182              22.0744
      -------------------------------------------------------------
                  HL-Gap            0.0044404 Eh            0.1208 eV
             Fermi-level           -0.2334547 Eh           -6.3526 eV

 SCC (total)                   0 d,  0 h,  0 min,  0.900 sec
 SCC setup                      ...        0 min,  0.002 sec (  0.194%)
 Dispersion                     ...        0 min,  0.003 sec (  0.387%)
 classical contributions        ...        0 min,  0.000 sec (  0.025%)
 integral evaluation            ...        0 min,  0.008 sec (  0.920%)
 iterations                     ...        0 min,  0.865 sec ( 96.101%)
 molecular gradient             ...        0 min,  0.020 sec (  2.234%)
 printout                       ...        0 min,  0.001 sec (  0.137%)

         :::::::::::::::::::::::::::::::::::::::::::::::::::::
         ::                     SUMMARY                     ::
         :::::::::::::::::::::::::::::::::::::::::::::::::::::
         :: total energy            -220.598445209676 Eh    ::
         :: total w/o Gsasa/hb      -220.538976404018 Eh    ::
         :: gradient norm              0.796366134526 Eh/a0 ::
         :: HOMO-LUMO gap              0.120828171815 eV    ::
         ::.................................................::
         :: SCC energy              -224.049381941006 Eh    ::
         :: -> isotropic ES            0.846652247850 Eh    ::
         :: -> anisotropic ES          0.047578390388 Eh    ::
         :: -> anisotropic XC          0.115684919110 Eh    ::
         :: -> dispersion             -0.181683878605 Eh    ::
         :: -> Gsolv                  -0.290633152109 Eh    ::
         ::    -> Gelec               -0.231164346451 Eh    ::
         ::    -> Gsasa               -0.056104732026 Eh    ::
         ::    -> Ghb                 -0.008317511210 Eh    ::
         ::    -> Gshift               0.004953437577 Eh    ::
         :: repulsion energy           3.450936731330 Eh    ::
         :: add. restraining           0.000000000000 Eh    ::
         :: total charge              -2.000000000101 e     ::
         :::::::::::::::::::::::::::::::::::::::::::::::::::::

           -------------------------------------------------
          |                Property Printout                |
           -------------------------------------------------

    * Orbital Energies and Occupations

         #    Occupation            Energy/Eh            Energy/eV
      -------------------------------------------------------------
         1        2.0000           -0.6914648             -18.8157
       ...           ...                  ...                  ...
       185        2.0000           -0.3470933              -9.4449
       186        2.0000           -0.3468732              -9.4389
       187        2.0000           -0.3431412              -9.3373
       188        2.0000           -0.3421963              -9.3116
       189        2.0000           -0.3397915              -9.2462
       190        2.0000           -0.3321208              -9.0375
       191        2.0000           -0.3140241              -8.5450
       192        2.0000           -0.3095082              -8.4221
       193        2.0000           -0.2914744              -7.9314
       194        2.0000           -0.2840239              -7.7287
       195        2.0000           -0.2703188              -7.3557
       196        2.0000           -0.2633135              -7.1651
       197        1.7335           -0.2352337              -6.4010 (HOMO)
       198        0.1145           -0.2307934              -6.2802 (LUMO)
       199        0.0923           -0.2305772              -6.2743
       200        0.0597           -0.2301477              -6.2626
       201                         -0.2118026              -5.7634
       202                         -0.1996365              -5.4324
       203                         -0.1960903              -5.3359
       204                         -0.1886475              -5.1334
       205                         -0.1865459              -5.0762
       206                         -0.1826135              -4.9692
       207                         -0.1706563              -4.6438
       208                         -0.1589277              -4.3246
       ...                                ...                  ...
       357                          0.8112182              22.0744
      -------------------------------------------------------------
                  HL-Gap            0.0044404 Eh            0.1208 eV
             Fermi-level           -0.2334547 Eh           -6.3526 eV

     #   Z          covCN         q      C6AA      α(0)
     1   7 N        2.633    -0.370    29.561     8.075
     2   6 C        3.781     0.030    20.082     6.384
     3   6 C        2.765     0.183    24.062     8.033
     4   8 O        0.856    -0.381    21.302     6.188
     5   6 C        3.806    -0.073    21.900     6.662
     6   6 C        3.829    -0.017    20.850     6.497
     7   6 C        3.732    -0.121    22.906     6.831
     8   6 C        3.760    -0.116    22.765     6.802
     9   7 N        2.631    -0.374    29.659     8.088
    10   6 C        3.789     0.041    19.901     6.354
    11   6 C        2.765     0.190    23.936     8.012
    12   8 O        0.857    -0.399    21.656     6.239
    13   6 C        3.804    -0.071    21.857     6.656
    14   6 C        3.808    -0.101    22.428     6.741
    15   6 C        2.746     0.284    22.192     7.713
    16   8 O        0.858    -0.527    24.379     6.620
    17   7 N        2.644    -0.263    26.828     7.693
    18   7 N        2.632    -0.372    29.616     8.082
    19   6 C        3.784     0.027    20.128     6.391
    20   6 C        2.760     0.268    22.467     7.762
    21   8 O        0.860    -0.511    24.032     6.573
    22   6 C        3.814    -0.072    21.857     6.654
    23   6 C        2.965    -0.025    28.618     8.775
    24   6 C        2.924    -0.045    29.109     8.848
    25   6 C        2.918    -0.048    29.188     8.859
    26   6 C        2.910    -0.058    29.442     8.897
    27   6 C        2.916    -0.058    29.454     8.900
    28   6 C        2.854     0.145    24.844     8.169
    29   8 O        1.661    -0.432    21.486     6.258
    30   7 N        2.686    -0.177    24.831     7.401
    31   6 C        3.797     0.023    20.198     6.399
    32   6 C        2.747     0.275    22.341     7.740
    33   8 O        0.859    -0.486    23.474     6.496
    34   6 C        3.808    -0.080    22.016     6.679
    35   6 C        3.849    -0.016    20.820     6.490
    36   6 C        3.762    -0.123    22.910     6.823
    37   6 C        3.759    -0.123    22.916     6.825
    38   7 N        2.686    -0.187    25.063     7.435
    39   6 C        3.789     0.026    20.146     6.392
    40   6 C        2.748     0.274    22.374     7.745
    41   8 O        0.860    -0.487    23.492     6.498
    42   6 C        3.764    -0.132    23.076     6.847
    43   7 N        2.683    -0.186    25.025     7.430
    44   6 C        3.794     0.029    20.096     6.384
    45   6 C        2.770     0.280    22.257     7.726
    46   8 O        0.862    -0.497    23.713     6.529
    47   6 C        3.819    -0.041    21.299     6.568
    48   6 C        3.811    -0.085    22.104     6.692
    49   6 C        2.690     0.356    20.957     7.492
    50   8 O        0.856    -0.647    27.312     7.007
    51   8 O        0.857    -0.647    27.304     7.006
    52   7 N        2.693    -0.175    24.787     7.394
    53   6 C        3.809     0.023    20.178     6.394
    54   6 C        2.746     0.277    22.315     7.735
    55   8 O        0.858    -0.469    23.111     6.445
    56   6 C        3.807    -0.059    21.631     6.621
    57   6 C        3.071    -0.016    28.340     8.729
    58   7 N        2.840    -0.141    24.052     7.284
    59   6 C        3.042    -0.003    28.066     8.689
    60   6 C        2.085    -0.152    35.191     9.584
    61   7 N        1.974    -0.413    31.675     8.346
    62   7 N        2.692    -0.194    25.214     7.458
    63   6 C        3.779     0.024    20.201     6.403
    64   6 C        2.770     0.198    23.787     7.988
    65   8 O        0.856    -0.383    21.350     6.195
    66   6 C        3.846    -0.016    20.826     6.491
    67   6 C        3.756    -0.117    22.795     6.807
    68   6 C        3.754    -0.118    22.825     6.812
    69   1 H        0.980    -0.005     3.135     2.767
    70   1 H        0.980     0.010     2.878     2.651
    71   1 H        0.980    -0.014     3.309     2.842
    72   1 H        0.980    -0.013     3.285     2.832
    73   1 H        0.980     0.008     2.916     2.668
    74   1 H        0.980     0.008     2.917     2.669
    75   1 H        0.980    -0.015     3.316     2.845
    76   1 H        0.860     0.159     1.344     1.816
    77   1 H        0.860     0.152     1.387     1.845
    78   1 H        0.927     0.065     2.145     2.290
    79   1 H        0.929     0.048     2.346     2.395
    80   1 H        0.927     0.050     2.316     2.380
    81   1 H        0.926     0.030     2.591     2.517
    82   1 H        0.927     0.028     2.611     2.527
    83   1 H        0.927     0.037     2.491     2.468
    84   1 H        0.926     0.037     2.494     2.470
    85   1 H        0.927     0.042     2.421     2.433
    86   1 H        0.927     0.039     2.462     2.454
    87   1 H        0.927     0.040     2.445     2.445
    88   1 H        0.927     0.042     2.428     2.437
    89   1 H        0.860     0.151     1.395     1.850
    90   1 H        0.860     0.165     1.306     1.790
    91   1 H        0.927     0.035     2.523     2.484
    92   1 H        0.929     0.037     2.482     2.464
    93   1 H        0.927     0.049     2.329     2.386
    94   1 H        0.927     0.077     2.006     2.215
    95   1 H        0.927     0.074     2.043     2.235
    96   1 H        0.927     0.079     1.989     2.205
    97   1 H        0.861     0.229     0.969     1.542
    98   1 H        0.861     0.201     1.103     1.645
    99   1 H        0.860     0.170     1.271     1.766
   100   1 H        0.860     0.154     1.373     1.836
   101   1 H        0.926     0.066     2.135     2.285
   102   1 H        0.926     0.046     2.370     2.407
   103   1 H        0.927     0.051     2.310     2.377
   104   1 H        0.929     0.045     2.385     2.415
   105   1 H        0.929     0.041     2.439     2.442
   106   1 H        0.929     0.055     2.255     2.348
   107   1 H        0.929     0.046     2.374     2.409
   108   1 H        0.807     0.335     0.624     1.241
   109   1 H        0.861     0.207     1.073     1.623
   110   1 H        0.927     0.078     1.999     2.211
   111   1 H        0.927     0.067     2.114     2.274
   112   1 H        0.927     0.055     2.255     2.348
   113   1 H        0.927     0.032     2.563     2.504
   114   1 H        0.927     0.048     2.348     2.396
   115   1 H        0.927     0.042     2.420     2.433
   116   1 H        0.927     0.052     2.299     2.371
   117   1 H        0.927     0.041     2.429     2.437
   118   1 H        0.927     0.051     2.312     2.378
   119   1 H        0.927     0.036     2.506     2.475
   120   1 H        0.861     0.210     1.057     1.611
   121   1 H        0.927     0.087     1.911     2.162
   122   1 H        0.926     0.061     2.186     2.312
   123   1 H        0.926     0.074     2.037     2.232
   124   1 H        0.927     0.073     2.057     2.243
   125   1 H        0.861     0.198     1.118     1.657
   126   1 H        0.926     0.077     2.012     2.218
   127   1 H        0.927     0.056     2.242     2.342
   128   1 H        0.927     0.035     2.517     2.481
   129   1 H        0.927     0.038     2.471     2.458
   130   1 H        0.927     0.028     2.609     2.526
   131   1 H        0.861     0.212     1.045     1.602
   132   1 H        0.927     0.082     1.958     2.188
   133   1 H        0.926     0.047     2.357     2.401
   134   1 H        0.927     0.027     2.624     2.533
   135   1 H        0.929    -0.045     3.978     3.119
   136   1 H        0.861     0.193     1.144     1.675
   137   1 H        0.926     0.088     1.902     2.157
   138   1 H        0.929     0.072     2.058     2.243
   139   1 H        0.927     0.052     2.300     2.371
   140   1 H        0.927     0.054     2.265     2.353
   141   1 H        0.927     0.045     2.377     2.411
   142   1 H        0.927     0.050     2.315     2.379
   143   1 H        0.927     0.054     2.275     2.359
   144   1 H        0.927     0.049     2.330     2.387
   145   1 H        0.927     0.039     2.464     2.455
   146   1 H        0.980     0.005     2.959     2.688
   147   1 H        0.980    -0.009     3.207     2.798
   148   1 H        0.980     0.015     2.798     2.614
   149   1 H        0.980     0.012     2.848     2.637
   150   1 H        0.980    -0.008     3.190     2.791
   151   1 H        0.980    -0.009     3.208     2.799
   152   1 H        0.980     0.017     2.774     2.603
   153   1 H        0.858     0.111     1.698     2.041

 Mol. C6AA /au·bohr⁶  :     208796.397638
 Mol. C8AA /au·bohr⁸  :    4529129.683268
 Mol. α(0) /au        :        689.124968


Wiberg/Mayer (AO) data.
largest (>0.10) Wiberg bond orders for each atom

 ---------------------------------------------------------------------------
     #   Z sym  total        # sym  WBO       # sym  WBO       # sym  WBO
 ---------------------------------------------------------------------------
     1   7 N    3.003 --     2 C    1.024    77 H    0.962    76 H    0.956
     2   6 C    3.985 --     1 N    1.024     3 C    0.978     5 C    0.959
                            78 H    0.932
     3   6 C    3.820 --     4 O    1.843     2 C    0.978    79 H    0.948
     4   8 O    1.984 --     3 C    1.843
     5   6 C    3.991 --     6 C    1.001    81 H    0.980    80 H    0.971
                             2 C    0.959
     6   6 C    3.994 --     8 C    1.019     5 C    1.001     7 C    0.984
                            82 H    0.973
     7   6 C    3.994 --    84 H    0.992    83 H    0.991    85 H    0.990
                             6 C    0.984
     8   6 C    3.996 --     6 C    1.019    87 H    0.985    86 H    0.984
                            88 H    0.974
     9   7 N    2.984 --    10 C    1.013    89 H    0.963    90 H    0.957
    10   6 C    3.988 --     9 N    1.013    11 C    0.974    13 C    0.970
                            91 H    0.953
    11   6 C    3.794 --    12 O    1.819    10 C    0.974    92 H    0.948
    12   8 O    1.955 --    11 C    1.819
    13   6 C    3.986 --    14 C    0.993    93 H    0.976    10 C    0.970
                            94 H    0.955
    14   6 C    3.993 --    13 C    0.993    15 C    0.986    96 H    0.965
                            95 H    0.954
    15   6 C    3.946 --    16 O    1.603    17 N    1.330    14 C    0.986
    16   8 O    1.903 --    15 C    1.603    17 N    0.198
    17   7 N    3.424 --    15 C    1.330    98 H    0.916    97 H    0.903
                            16 O    0.198
    18   7 N    3.001 --    19 C    1.018    99 H    0.955   100 H    0.952
    19   6 C    3.980 --    18 N    1.018    22 C    0.950   101 H    0.947
                            20 C    0.941
    20   6 C    3.936 --    21 O    1.616    30 N    1.302    19 C    0.941
    21   8 O    1.951 --    20 C    1.616    30 N    0.188
    22   6 C    3.996 --    23 C    1.012   102 H    0.971   103 H    0.969
                            19 C    0.950
    23   6 C    3.984 --    24 C    1.390    25 C    1.387    22 C    1.012
                            28 C    0.111
    24   6 C    3.991 --    26 C    1.460    23 C    1.390   104 H    0.967
                            27 C    0.105
    25   6 C    3.993 --    27 C    1.500    23 C    1.387   105 H    0.966
    26   6 C    3.991 --    24 C    1.460    28 C    1.389   106 H    0.962
    27   6 C    3.988 --    25 C    1.500    28 C    1.319   107 H    0.969
                            24 C    0.105
    28   6 C    3.930 --    26 C    1.389    27 C    1.319    29 O    1.070
                            23 C    0.111
    29   8 O    2.097 --    28 C    1.070   108 H    0.867
    30   7 N    3.461 --    20 C    1.302    31 C    0.969   109 H    0.919
                            21 O    0.188
    31   6 C    3.958 --    34 C    0.978    30 N    0.969   110 H    0.950
                            32 C    0.925
    32   6 C    3.947 --    33 O    1.649    38 N    1.300    31 C    0.925
    33   8 O    1.967 --    32 C    1.649    38 N    0.197
    34   6 C    3.986 --    35 C    0.994    31 C    0.978   112 H    0.974
                           111 H    0.972
    35   6 C    3.995 --    36 C    1.009    37 C    1.003    34 C    0.994
                           113 H    0.970
    36   6 C    3.994 --    35 C    1.009   114 H    0.986   115 H    0.986
                           116 H    0.985
    37   6 C    3.994 --    35 C    1.003   117 H    0.986   119 H    0.982
                           118 H    0.975
    38   7 N    3.454 --    32 C    1.300    39 C    0.957   120 H    0.924
                            33 O    0.197
    39   6 C    3.960 --    42 C    1.008    38 N    0.957   121 H    0.957
                            40 C    0.926
    40   6 C    3.946 --    41 O    1.637    43 N    1.307    39 C    0.926
    41   8 O    1.965 --    40 C    1.637    43 N    0.200
    42   6 C    3.986 --    39 C    1.008   122 H    0.982   123 H    0.979
                           124 H    0.978
    43   7 N    3.469 --    40 C    1.307    44 C    0.957   125 H    0.930
                            41 O    0.200
    44   6 C    3.955 --    47 C    0.978    43 N    0.957   126 H    0.951
                            45 C    0.936
    45   6 C    3.953 --    46 O    1.627    52 N    1.306    44 C    0.936
    46   8 O    1.950 --    45 C    1.627    52 N    0.195
    47   6 C    3.991 --    48 C    1.007    44 C    0.978   128 H    0.970
                           127 H    0.969
    48   6 C    3.991 --    47 C    1.007   130 H    0.971   129 H    0.963
                            49 C    0.942
    49   6 C    3.942 --    50 O    1.492    51 O    1.488    48 C    0.942
    50   8 O    1.785 --    49 C    1.492    51 O    0.222
    51   8 O    1.776 --    49 C    1.488    50 O    0.222
    52   7 N    3.479 --    45 C    1.306    53 C    0.976   131 H    0.904
                            46 O    0.195
    53   6 C    3.956 --    52 N    0.976    56 C    0.967    54 C    0.940
                           132 H    0.929
    54   6 C    3.947 --    55 O    1.661    62 N    1.260    53 C    0.940
    55   8 O    1.959 --    54 C    1.661    62 N    0.170
    56   6 C    3.987 --    57 C    1.000   133 H    0.972   134 H    0.971
                            53 C    0.967
    57   6 C    3.914 --    59 C    1.571    58 N    1.141    56 C    1.000
                            60 C    0.108
    58   7 N    3.509 --    60 C    1.265    57 C    1.141   153 H    0.942
    59   6 C    3.947 --    57 C    1.571    61 N    1.260   135 H    0.971
    60   6 C    2.931 --    61 N    1.493    58 N    1.265    57 C    0.108
    61   7 N    2.922 --    60 C    1.493    59 C    1.260
    62   7 N    3.404 --    54 C    1.260    63 C    0.968   136 H    0.917
                            55 O    0.170
    63   6 C    3.958 --    64 C    0.984    62 N    0.968   137 H    0.950
                            66 C    0.933
    64   6 C    3.842 --    65 O    1.852    63 C    0.984   138 H    0.941
    65   8 O    1.989 --    64 C    1.852
    66   6 C    3.982 --    67 C    1.008    68 C    1.006   139 H    0.968
                            63 C    0.933
    67   6 C    3.994 --    66 C    1.008   140 H    0.986   141 H    0.985
                           142 H    0.984
    68   6 C    3.994 --    66 C    1.006   144 H    0.986   143 H    0.985
                           145 H    0.984
    69   1 H    1.000 --   146 H    0.992
    70   1 H    1.000 --   147 H    0.979
    71   1 H    1.000 --   148 H    0.974
    72   1 H    1.000 --   149 H    0.979
    73   1 H    1.000 --   150 H    0.982
    74   1 H    1.000 --   151 H    0.974
    75   1 H    1.000 --   152 H    0.971
    76   1 H    0.975 --     1 N    0.956
    77   1 H    0.977 --     1 N    0.962
    78   1 H    0.992 --     2 C    0.932
    79   1 H    0.997 --     3 C    0.948
    80   1 H    0.997 --     5 C    0.971
    81   1 H    0.999 --     5 C    0.980
    82   1 H    0.999 --     6 C    0.973
    83   1 H    0.999 --     7 C    0.991
    84   1 H    0.999 --     7 C    0.992
    85   1 H    0.998 --     7 C    0.990
    86   1 H    0.998 --     8 C    0.984
    87   1 H    0.998 --     8 C    0.985
    88   1 H    0.998 --     8 C    0.974
    89   1 H    0.977 --     9 N    0.963
    90   1 H    0.973 --     9 N    0.957
    91   1 H    0.997 --    10 C    0.953
    92   1 H    0.999 --    11 C    0.948
    93   1 H    0.998 --    13 C    0.976
    94   1 H    0.993 --    13 C    0.955
    95   1 H    0.994 --    14 C    0.954
    96   1 H    0.994 --    14 C    0.965
    97   1 H    0.947 --    17 N    0.903
    98   1 H    0.960 --    17 N    0.916
    99   1 H    0.971 --    18 N    0.955
   100   1 H    0.976 --    18 N    0.952
   101   1 H    0.995 --    19 C    0.947
   102   1 H    0.997 --    22 C    0.971
   103   1 H    0.997 --    22 C    0.969
   104   1 H    0.998 --    24 C    0.967
   105   1 H    0.998 --    25 C    0.966
   106   1 H    0.997 --    26 C    0.962
   107   1 H    0.998 --    27 C    0.969
   108   1 H    0.887 --    29 O    0.867
   109   1 H    0.957 --    30 N    0.919
   110   1 H    0.994 --    31 C    0.950
   111   1 H    0.995 --    34 C    0.972
   112   1 H    0.997 --    34 C    0.974
   113   1 H    0.999 --    35 C    0.970
   114   1 H    0.998 --    36 C    0.986
   115   1 H    0.998 --    36 C    0.986
   116   1 H    0.997 --    36 C    0.985
   117   1 H    0.998 --    37 C    0.986
   118   1 H    0.997 --    37 C    0.975
   119   1 H    0.999 --    37 C    0.982
   120   1 H    0.956 --    38 N    0.924
   121   1 H    0.992 --    39 C    0.957
   122   1 H    0.996 --    42 C    0.982
   123   1 H    0.994 --    42 C    0.979
   124   1 H    0.994 --    42 C    0.978
   125   1 H    0.961 --    43 N    0.930
   126   1 H    0.994 --    44 C    0.951
   127   1 H    0.996 --    47 C    0.969
   128   1 H    0.999 --    47 C    0.970
   129   1 H    0.998 --    48 C    0.963
   130   1 H    0.999 --    48 C    0.971
   131   1 H    0.955 --    52 N    0.904
   132   1 H    0.993 --    53 C    0.929
   133   1 H    0.996 --    56 C    0.972
   134   1 H    0.999 --    56 C    0.971
   135   1 H    0.996 --    59 C    0.971
   136   1 H    0.963 --    62 N    0.917
   137   1 H    0.991 --    63 C    0.950
   138   1 H    0.995 --    64 C    0.941
   139   1 H    0.997 --    66 C    0.968
   140   1 H    0.997 --    67 C    0.986
   141   1 H    0.998 --    67 C    0.985
   142   1 H    0.997 --    67 C    0.984
   143   1 H    0.997 --    68 C    0.985
   144   1 H    0.997 --    68 C    0.986
   145   1 H    0.998 --    68 C    0.984
   146   1 H    1.000 --    69 H    0.992
   147   1 H    1.000 --    70 H    0.979
   148   1 H    1.000 --    71 H    0.974
   149   1 H    1.000 --    72 H    0.979
   150   1 H    1.000 --    73 H    0.982
   151   1 H    1.000 --    74 H    0.974
   152   1 H    1.000 --    75 H    0.971
   153   1 H    0.988 --    58 N    0.942
 ---------------------------------------------------------------------------

Topologies differ in total number of bonds
Writing topology from bond orders to xtbtopo.mol

molecular dipole:
                 x           y           z       tot (Debye)
 q only:      266.199     206.606      81.331
   full:      266.861     205.833      80.964     880.990
molecular quadrupole (traceless):
                xx          xy          yy          xz          yz          zz
 q only:   -23192.437  -41209.698   -1821.887  -16250.412  -12547.665   25014.323
  q+dip:   -23464.693  -41161.452   -1573.330  -16223.555  -12428.253   25038.023
   full:   -23468.108  -41161.660   -1572.082  -16223.954  -12428.187   25040.190


           -------------------------------------------------
          | TOTAL ENERGY             -220.598445209676 Eh   |
          | GRADIENT NORM               0.796366134526 Eh/α |
          | HOMO-LUMO GAP               0.120828171815 eV   |
           -------------------------------------------------
########################################################################
[WARNING] Runtime exception occurred
-2- restart_readRestart: Dimension missmatch in restart file.
-1- restart_readRestart: Number of electron missmatch in restart file.
########################################################################

------------------------------------------------------------------------
 * finished run on 2025/05/05 at 17:12:14.546     
------------------------------------------------------------------------
 total:
 * wall-time:     0 d,  0 h,  0 min,  0.914 sec
 *  cpu-time:     0 d,  0 h,  0 min, 25.020 sec
 * ratio c/w:    27.389 speedup
 SCF:
 * wall-time:     0 d,  0 h,  0 min,  0.901 sec
 *  cpu-time:     0 d,  0 h,  0 min, 24.717 sec
 * ratio c/w:    27.433 speedup

