      -----------------------------------------------------------      
     |                   =====================                   |     
     |                           x T B                           |     
     |                   =====================                   |     
     |                         S. Grimme                         |     
     |          Mulliken Center for Theoretical Chemistry        |     
     |                    University of Bonn                     |     
      -----------------------------------------------------------      

   * xtb version 6.7.1 (edcfbbe) compiled by 'conda@afd1a870197c' on 2025-04-11

   xtb is free software: you can redistribute it and/or modify it under
   the terms of the GNU Lesser General Public License as published by
   the Free Software Foundation, either version 3 of the License, or
   (at your option) any later version.
   
   xtb is distributed in the hope that it will be useful,
   but WITHOUT ANY WARRANTY; without even the implied warranty of
   MERCHANTABILITY or FITNESS FOR A PARTICULAR PURPOSE.  See the
   GNU Lesser General Public License for more details.
   
   Cite this work as:
   * C. Bannwarth, E. Caldeweyher, S. Ehlert, A. Hansen, P. Pracht,
     J. Seibert, S. Spicher, S. Grimme, WIREs Comput. Mol. Sci., 2020, 11,
     e01493. DOI: 10.1002/wcms.1493
   
   for GFN2-xTB:
   * C. Bannwarth, S. Ehlert and S. Grimme., J. Chem. Theory Comput., 2019,
     15, 1652-1671. DOI: 10.1021/acs.jctc.8b01176
   for GFN1-xTB:
   * S. Grimme, C. Bannwarth, P. Shushkov, J. Chem. Theory Comput., 2017,
     13, 1989-2009. DOI: 10.1021/acs.jctc.7b00118
   for GFN0-xTB:
   * P. Pracht, E. Caldeweyher, S. Ehlert, S. Grimme, ChemRxiv, 2019, preprint.
     DOI: 10.26434/chemrxiv.8326202.v1
   for GFN-FF:
   * S. Spicher and S. Grimme, Angew. Chem. Int. Ed., 2020, 59, 15665-15673.
     DOI: 10.1002/anie.202004239
   
   for ALPB and GBSA implicit solvation:
   * S. Ehlert, M. Stahn, S. Spicher, S. Grimme, J. Chem. Theory Comput.,
     2021, 17, 4250-4261. DOI: 10.1021/acs.jctc.1c00471
   
   for ddCOSMO and CPCM-X implicit solvation:
   * M. Stahn, S. Ehlert, S. Grimme, J. Phys. Chem. A,
     2023, XX, XXXX-XXXX. DOI: 10.1021/acs.jpca.3c04382
   
   for DFT-D4:
   * E. Caldeweyher, C. Bannwarth and S. Grimme, J. Chem. Phys., 2017,
     147, 034112. DOI: 10.1063/1.4993215
   * E. Caldeweyher, S. Ehlert, A. Hansen, H. Neugebauer, S. Spicher,
     C. Bannwarth and S. Grimme, J. Chem. Phys., 2019, 150, 154122.
     DOI: 10.1063/1.5090222
   * E. Caldeweyher, J.-M. Mewes, S. Ehlert and S. Grimme, Phys. Chem. Chem. Phys.
     2020, 22, 8499-8512. DOI: 10.1039/D0CP00502A
   
   for sTDA-xTB:
   * S. Grimme and C. Bannwarth, J. Chem. Phys., 2016, 145, 054103.
     DOI: 10.1063/1.4959605
   
   in the mass-spec context:
   * V. Asgeirsson, C. Bauer and S. Grimme, Chem. Sci., 2017, 8, 4879.
     DOI: 10.1039/c7sc00601b
   * J. Koopman and S. Grimme, ACS Omega 2019, 4, 12, 15120-15133.
     DOI: 10.1021/acsomega.9b02011
   
   for metadynamics refer to:
   * S. Grimme, J. Chem. Theory Comput., 2019, 155, 2847-2862
     DOI: 10.1021/acs.jctc.9b00143
   
   for SPH calculations refer to:
   * S. Spicher and S. Grimme, J. Chem. Theory Comput., 2021, 17, 1701-1714
     DOI: 10.1021/acs.jctc.0c01306
   
   for ONIOM refer to:
   * C. Plett, A. Katbashev, S. Ehlert, S. Grimme, M. Bursch,
     Phys. Chem. Chem. Phys., 2023, 25, 17860-17868. DOI: 10.1039/D3CP02178E
   
   for DIPRO refer to:
   * J. Kohn, N. Gildemeister, S. Grimme, D. Fazzi, A. Hansen,
     J. Chem. Phys., 2023, just accepted.
   
   for PTB refer to:
   * S. Grimme, M. Mueller, A. Hansen, J. Chem. Phys., 2023, 158, 124111.
     DOI: 10.1063/5.0137838
   
   with help from (in alphabetical order)
   P. Atkinson, C. Bannwarth, F. Bohle, G. Brandenburg, E. Caldeweyher
   M. Checinski, S. Dohm, S. Ehlert, S. Ehrlich, I. Gerasimov, C. Hölzer
   A. Katbashev, J. Kohn, J. Koopman, C. Lavigne, S. Lehtola, F. März, M. Müller,
   F. Musil, H. Neugebauer, J. Pisarek, C. Plett, P. Pracht, F. Pultar,
   J. Seibert, P. Shushkov, S. Spicher, M. Stahn, M. Steiner, T. Strunk,
   J. Stückrath, T. Rose, and J. Unsleber
   
 * started run on 2025/05/05 at 16:59:23.005     
   ID    Z sym.   atoms
    1    7 N      1, 9, 10, 18, 25, 37, 45, 50, 59, 65, 68
    2    6 C      2, 3, 5-7, 11, 12, 14-17, 19, 20, 22-24, 26, 27, 29-35, 38,
                  39, 41-44, 46, 47, 49, 51, 52, 54-56, 60, 61, 63, 64, 66, 67
    3    8 O      4, 8, 13, 21, 28, 36, 40, 48, 53, 57, 58, 62
    4    1 H      69-139

           -------------------------------------------------
          |                Calculation Setup                |
           -------------------------------------------------

          program call               : xtb /tmp/tmptlnxiu89/HID/input.xyz --alpb ether --chrg -2 --input /tmp/tmptlnxiu89/HID/constraints.inp --gfn 2
          hostname                   : fedora
          coordinate file            : /tmp/tmptlnxiu89/HID/input.xyz
          omp threads                :                    32


molecular fragmentation (1/2 indicates fragments):
111111111222222222222222222222222222222222222222222222222222222222221111
1111112222222222222222222222222222222222222222222222222222222222222
# atoms in fragment 1/2:    19   120
 fragment masses (1/2) :      130.15      827.97
CMA distance (Bohr)    :  17.382
constraining FC (au)   :  0.0500
########################################################################
[WARNING] Please study the warnings concerning your input carefully
-1- readin_getIntValue: could not parse 'S'
########################################################################

           -------------------------------------------------
          |                 G F N 2 - x T B                 |
           -------------------------------------------------

        Reference                      10.1021/acs.jctc.8b01176
      * Hamiltonian:
        H0-scaling (s, p, d)           1.850000    2.230000    2.230000
        zeta-weighting                 0.500000
      * Dispersion:
        s8                             2.700000
        a1                             0.520000
        a2                             5.000000
        s9                             5.000000
      * Repulsion:
        kExp                           1.500000    1.000000
        rExp                           1.000000
      * Coulomb:
        alpha                          2.000000
        third order                    shell-resolved
        anisotropic                    true
        a3                             3.000000
        a5                             4.000000
        cn-shift                       1.200000
        cn-exp                         4.000000
        max-rad                        5.000000

      * Solvation model:               ALPB
        Solvent                        ether
        Parameter file                 internal GFN2-xTB/ALPB
        Dielectric constant                4.3300E+00
        Reference state                gsolv [1 M gas/solution]
        Free energy shift                  4.9534E-03 Eh       3.1083E+00 kcal/mol
        Temperature                        2.9815E+02 K
        Density                            7.1300E-01 kg/L
        Solvent mass                       7.4120E+01 g/mol
        Interaction kernel             P16
        Born radius scaling (c1)           1.5847E+00
        Born radii integrator          GBOBC
        Born offset                        0.0000E+00 a0       0.0000E+00 AA
        H-bond correction              true
        Ion screening                  false
        Surface tension                    1.0000E-05 Eh       1.5569E+01 dyn/cm
        Grid points                               230 per atom

          ...................................................
          :                      SETUP                      :
          :.................................................:
          :  # basis functions                 343          :
          :  # atomic orbitals                 343          :
          :  # shells                          207          :
          :  # electrons                       380          :
          :  max. iterations                   250          :
          :  Hamiltonian                  GFN2-xTB          :
          :  restarted?                      false          :
          :  GBSA solvation                   true          :
          :  PC potential                    false          :
          :  electronic temp.          300.0000000     K    :
          :  accuracy                    1.0000000          :
          :  -> integral cutoff          0.2500000E+02      :
          :  -> integral neglect         0.1000000E-07      :
          :  -> SCF convergence          0.1000000E-05 Eh   :
          :  -> wf. convergence          0.1000000E-03 e    :
          :  Broyden damping             0.4000000          :
          :  net charge                         -2          :
          :  unpaired electrons                  0          :
          ...................................................

 iter      E             dE          RMSdq      gap      omega  full diag
   1   -215.8795333 -0.215880E+03  0.444E+00    1.91       0.0  T
   2   -215.4801934  0.399340E+00  0.312E+00    0.14       1.0  T
   3   -216.2390517 -0.758858E+00  0.226E+00    0.49       1.0  T
   4   -216.5699035 -0.330852E+00  0.121E+00    0.50       1.0  T
   5   -215.9269568  0.642947E+00  0.192E+00    0.11       1.0  T
   6   -216.5798660 -0.652909E+00  0.799E-01    0.39       1.0  T
   7   -216.0319899  0.547876E+00  0.175E+00    0.02       1.0  T
   8   -216.1033859 -0.713960E-01  0.167E+00    0.01       1.0  T
   9   -216.0287311  0.746548E-01  0.175E+00    0.08       1.0  T
  10   -216.6040094 -0.575278E+00  0.588E-01    0.53       1.0  T
  11   -216.6106287 -0.661921E-02  0.507E-01    0.29       1.0  T
  12   -215.8044956  0.806133E+00  0.218E+00    0.30       1.0  T
  13   -216.6144849 -0.809989E+00  0.460E-01    0.27       1.0  T
  14   -216.6365693 -0.220844E-01  0.316E-01    0.14       1.0  T
  15   -216.6258845  0.106848E-01  0.395E-01    0.05       1.0  T
  16   -216.6518412 -0.259567E-01  0.146E-01    0.11       1.0  T
  17   -216.6489580  0.288318E-02  0.186E-01    0.08       1.0  T
  18   -216.6519301 -0.297211E-02  0.141E-01    0.11       1.0  T
  19   -216.6550232 -0.309308E-02  0.666E-02    0.10       1.0  T
  20   -216.6555906 -0.567416E-03  0.349E-02    0.10       1.0  T
  21   -216.6557589 -0.168336E-03  0.159E-02    0.10       1.0  T
  22   -216.6558004 -0.415128E-04  0.647E-03    0.10       1.3  T
  23   -216.6558083 -0.791314E-05  0.101E-03    0.10       8.4  T
  24   -216.6558084 -0.853766E-07  0.721E-04    0.10      11.8  T
  25   -216.6558084  0.477612E-07  0.835E-04    0.10      10.2  T

   *** convergence criteria satisfied after 25 iterations ***

         #    Occupation            Energy/Eh            Energy/eV
      -------------------------------------------------------------
         1        2.0000           -0.6972114             -18.9721
       ...           ...                  ...                  ...
       184        2.0000           -0.3255244              -8.8580
       185        2.0000           -0.3254315              -8.8554
       186        2.0000           -0.3084827              -8.3942
       187        2.0000           -0.2985111              -8.1229
       188        2.0000           -0.2845599              -7.7433
       189        2.0000           -0.2806828              -7.6378
       190        1.5348           -0.2504352              -6.8147 (HOMO)
       191        0.1316           -0.2467806              -6.7152 (LUMO)
       192        0.1258           -0.2467347              -6.7140
       193        0.1099           -0.2465984              -6.7103
       194        0.0979           -0.2464828              -6.7071
       195                         -0.2041376              -5.5549
       ...                                ...                  ...
       343                          0.7108652              19.3436
      -------------------------------------------------------------
                  HL-Gap            0.0036546 Eh            0.0994 eV
             Fermi-level           -0.2493012 Eh           -6.7838 eV

 SCC (total)                   0 d,  0 h,  0 min,  0.746 sec
 SCC setup                      ...        0 min,  0.001 sec (  0.183%)
 Dispersion                     ...        0 min,  0.004 sec (  0.580%)
 classical contributions        ...        0 min,  0.000 sec (  0.025%)
 integral evaluation            ...        0 min,  0.007 sec (  1.005%)
 iterations                     ...        0 min,  0.715 sec ( 95.769%)
 molecular gradient             ...        0 min,  0.017 sec (  2.285%)
 printout                       ...        0 min,  0.001 sec (  0.150%)

         :::::::::::::::::::::::::::::::::::::::::::::::::::::
         ::                     SUMMARY                     ::
         :::::::::::::::::::::::::::::::::::::::::::::::::::::
         :: total energy            -213.923226850252 Eh    ::
         :: total w/o Gsasa/hb      -213.855554600616 Eh    ::
         :: gradient norm              0.354859141158 Eh/a0 ::
         :: HOMO-LUMO gap              0.099447788655 eV    ::
         ::.................................................::
         :: SCC energy              -216.646539004823 Eh    ::
         :: -> isotropic ES            0.807632363277 Eh    ::
         :: -> anisotropic ES          0.023768772631 Eh    ::
         :: -> anisotropic XC          0.079105539331 Eh    ::
         :: -> dispersion             -0.153836138878 Eh    ::
         :: -> Gsolv                  -0.281185939526 Eh    ::
         ::    -> Gelec               -0.213513689890 Eh    ::
         ::    -> Gsasa               -0.060864566994 Eh    ::
         ::    -> Ghb                 -0.011761120219 Eh    ::
         ::    -> Gshift               0.004953437577 Eh    ::
         :: repulsion energy           2.723312154571 Eh    ::
         :: add. restraining           0.000000000000 Eh    ::
         :: total charge              -1.999999999999 e     ::
         :::::::::::::::::::::::::::::::::::::::::::::::::::::

           -------------------------------------------------
          |                Property Printout                |
           -------------------------------------------------

    * Orbital Energies and Occupations

         #    Occupation            Energy/Eh            Energy/eV
      -------------------------------------------------------------
         1        2.0000           -0.6972114             -18.9721
       ...           ...                  ...                  ...
       178        2.0000           -0.3541063              -9.6357
       179        2.0000           -0.3519870              -9.5781
       180        2.0000           -0.3515578              -9.5664
       181        2.0000           -0.3430232              -9.3341
       182        2.0000           -0.3403708              -9.2620
       183        2.0000           -0.3269326              -8.8963
       184        2.0000           -0.3255244              -8.8580
       185        2.0000           -0.3254315              -8.8554
       186        2.0000           -0.3084827              -8.3942
       187        2.0000           -0.2985111              -8.1229
       188        2.0000           -0.2845599              -7.7433
       189        2.0000           -0.2806828              -7.6378
       190        1.5348           -0.2504352              -6.8147 (HOMO)
       191        0.1316           -0.2467806              -6.7152 (LUMO)
       192        0.1258           -0.2467347              -6.7140
       193        0.1099           -0.2465984              -6.7103
       194        0.0979           -0.2464828              -6.7071
       195                         -0.2041376              -5.5549
       196                         -0.2004740              -5.4552
       197                         -0.1961201              -5.3367
       198                         -0.1875146              -5.1025
       199                         -0.1867050              -5.0805
       200                         -0.1789733              -4.8701
       201                         -0.1782624              -4.8508
       ...                                ...                  ...
       343                          0.7108652              19.3436
      -------------------------------------------------------------
                  HL-Gap            0.0036546 Eh            0.0994 eV
             Fermi-level           -0.2493012 Eh           -6.7838 eV

     #   Z          covCN         q      C6AA      α(0)
     1   7 N        2.630    -0.368    29.490     8.065
     2   6 C        3.774     0.024    20.205     6.405
     3   6 C        2.758     0.186    24.011     8.024
     4   8 O        0.856    -0.393    21.540     6.223
     5   6 C        3.795    -0.060    21.660     6.627
     6   6 C        3.812    -0.103    22.457     6.745
     7   6 C        2.744     0.288    22.127     7.702
     8   8 O        0.860    -0.511    24.036     6.573
     9   7 N        2.645    -0.269    26.971     7.713
    10   7 N        2.625    -0.368    29.496     8.066
    11   6 C        3.776     0.039    19.939     6.362
    12   6 C        2.763     0.178    24.169     8.051
    13   8 O        0.856    -0.408    21.844     6.266
    14   6 C        3.789    -0.078    22.009     6.681
    15   6 C        3.833    -0.017    20.862     6.498
    16   6 C        3.750    -0.118    22.826     6.814
    17   6 C        3.756    -0.111    22.686     6.791
    18   7 N        2.711    -0.276    27.124     7.735
    19   6 C        3.823     0.031    20.032     6.369
    20   6 C        2.759     0.165    24.417     8.092
    21   8 O        0.856    -0.401    21.692     6.244
    22   6 C        3.856    -0.048    21.393     6.578
    23   6 C        3.871    -0.049    21.413     6.580
    24   6 C        3.773     0.013    20.391     6.434
    25   7 N        2.628    -0.377    29.752     8.101
    26   6 C        3.782     0.029    20.102     6.387
    27   6 C        2.758     0.267    22.489     7.766
    28   8 O        0.859    -0.515    24.128     6.586
    29   6 C        3.814    -0.072    21.864     6.655
    30   6 C        2.959    -0.006    28.159     8.704
    31   6 C        2.927    -0.038    28.934     8.821
    32   6 C        2.923    -0.050    29.229     8.866
    33   6 C        2.919    -0.067    29.670     8.932
    34   6 C        2.914    -0.066    29.632     8.926
    35   6 C        2.845     0.146    24.823     8.165
    36   8 O        1.660    -0.455    21.938     6.323
    37   7 N        2.685    -0.183    24.959     7.420
    38   6 C        3.800     0.026    20.143     6.390
    39   6 C        2.753     0.274    22.375     7.746
    40   8 O        0.858    -0.492    23.608     6.514
    41   6 C        3.817    -0.077    21.948     6.668
    42   6 C        3.856    -0.014    20.784     6.484
    43   6 C        3.769    -0.123    22.888     6.818
    44   6 C        3.764    -0.110    22.649     6.784
    45   7 N        2.682    -0.196    25.253     7.463
    46   6 C        3.792     0.030    20.075     6.381
    47   6 C        2.754     0.275    22.352     7.742
    48   8 O        0.857    -0.495    23.674     6.523
    49   6 C        3.767    -0.122    22.886     6.818
    50   7 N        2.683    -0.179    24.870     7.407
    51   6 C        3.780     0.020    20.258     6.412
    52   6 C        2.747     0.278    22.294     7.731
    53   8 O        0.859    -0.474    23.218     6.460
    54   6 C        3.803    -0.044    21.362     6.580
    55   6 C        3.806    -0.088    22.178     6.704
    56   6 C        2.688     0.358    20.921     7.486
    57   8 O        0.856    -0.658    27.587     7.042
    58   8 O        0.857    -0.634    26.970     6.963
    59   7 N        2.681    -0.192    25.169     7.451
    60   6 C        3.772     0.039    19.945     6.364
    61   6 C        2.747     0.186    24.020     8.025
    62   8 O        0.855    -0.386    21.404     6.203
    63   6 C        3.804    -0.065    21.745     6.639
    64   6 C        3.050    -0.001    28.007     8.680
    65   7 N        2.846    -0.132    23.853     7.254
    66   6 C        3.053    -0.008    28.176     8.705
    67   6 C        2.082    -0.093    33.476     9.347
    68   7 N        1.961    -0.376    30.640     8.209
    69   1 H        0.860     0.167     1.290     1.779
    70   1 H        0.860     0.155     1.366     1.831
    71   1 H        0.927     0.064     2.151     2.293
    72   1 H        0.929     0.043     2.414     2.430
    73   1 H        0.926     0.039     2.458     2.452
    74   1 H        0.926     0.054     2.276     2.359
    75   1 H        0.927     0.069     2.099     2.266
    76   1 H        0.927     0.075     2.034     2.230
    77   1 H        0.861     0.227     0.979     1.549
    78   1 H        0.861     0.209     1.062     1.614
    79   1 H        0.860     0.152     1.385     1.844
    80   1 H        0.860     0.161     1.327     1.804
    81   1 H        0.927     0.014     2.818     2.625
    82   1 H        0.929     0.036     2.507     2.476
    83   1 H        0.927     0.062     2.171     2.304
    84   1 H        0.927     0.052     2.292     2.367
    85   1 H        0.927     0.023     2.691     2.565
    86   1 H        0.926     0.046     2.367     2.406
    87   1 H        0.927     0.035     2.512     2.479
    88   1 H        0.926     0.044     2.401     2.423
    89   1 H        0.927     0.047     2.353     2.399
    90   1 H        0.927     0.042     2.422     2.434
    91   1 H        0.927     0.037     2.488     2.467
    92   1 H        0.860     0.146     1.429     1.873
    93   1 H        0.927     0.029     2.603     2.523
    94   1 H        0.929     0.045     2.384     2.414
    95   1 H        0.927     0.037     2.489     2.467
    96   1 H        0.927     0.048     2.351     2.398
    97   1 H        0.927     0.031     2.566     2.505
    98   1 H        0.927     0.033     2.538     2.491
    99   1 H        0.927     0.039     2.462     2.454
   100   1 H        0.926     0.028     2.608     2.525
   101   1 H        0.860     0.146     1.427     1.872
   102   1 H        0.860     0.166     1.298     1.784
   103   1 H        0.927     0.043     2.410     2.428
   104   1 H        0.927     0.064     2.152     2.294
   105   1 H        0.926     0.056     2.244     2.343
   106   1 H        0.929     0.046     2.364     2.404
   107   1 H        0.929     0.046     2.374     2.409
   108   1 H        0.929     0.047     2.352     2.398
   109   1 H        0.929     0.052     2.296     2.370
   110   1 H        0.807     0.341     0.609     1.226
   111   1 H        0.861     0.225     0.986     1.555
   112   1 H        0.927     0.083     1.943     2.180
   113   1 H        0.927     0.065     2.138     2.286
   114   1 H        0.927     0.059     2.213     2.326
   115   1 H        0.927     0.038     2.481     2.463
   116   1 H        0.927     0.048     2.346     2.395
   117   1 H        0.927     0.044     2.401     2.423
   118   1 H        0.927     0.049     2.337     2.391
   119   1 H        0.927     0.042     2.418     2.431
   120   1 H        0.926     0.043     2.407     2.426
   121   1 H        0.927     0.033     2.542     2.493
   122   1 H        0.861     0.207     1.070     1.620
   123   1 H        0.927     0.087     1.908     2.160
   124   1 H        0.927     0.058     2.227     2.334
   125   1 H        0.926     0.072     2.068     2.249
   126   1 H        0.927     0.076     2.024     2.225
   127   1 H        0.861     0.195     1.130     1.665
   128   1 H        0.927     0.080     1.983     2.202
   129   1 H        0.927     0.050     2.320     2.382
   130   1 H        0.927     0.050     2.320     2.382
   131   1 H        0.927     0.026     2.648     2.545
   132   1 H        0.927     0.031     2.576     2.510
   133   1 H        0.861     0.215     1.030     1.590
   134   1 H        0.927     0.061     2.184     2.311
   135   1 H        0.929     0.063     2.165     2.301
   136   1 H        0.927     0.042     2.420     2.432
   137   1 H        0.927     0.053     2.284     2.363
   138   1 H        0.929    -0.022     3.463     2.910
   139   1 H        0.858     0.144     1.440     1.880

 Mol. C6AA /au·bohr⁶  :     187282.342902
 Mol. C8AA /au·bohr⁸  :    4175923.278971
 Mol. α(0) /au        :        651.287429


Wiberg/Mayer (AO) data.
largest (>0.10) Wiberg bond orders for each atom

 ---------------------------------------------------------------------------
     #   Z sym  total        # sym  WBO       # sym  WBO       # sym  WBO
 ---------------------------------------------------------------------------
     1   7 N    3.006 --     2 C    1.032    70 H    0.961    69 H    0.954
     2   6 C    3.983 --     1 N    1.032     3 C    0.966    71 H    0.958
                             5 C    0.943
     3   6 C    3.799 --     4 O    1.828     2 C    0.966    72 H    0.950
     4   8 O    1.971 --     3 C    1.828
     5   6 C    3.985 --     6 C    1.004    73 H    0.980    74 H    0.974
                             2 C    0.943
     6   6 C    3.995 --     5 C    1.004     7 C    0.974    75 H    0.960
                            76 H    0.957
     7   6 C    3.945 --     8 O    1.625     9 N    1.315     6 C    0.974
     8   8 O    1.930 --     7 C    1.625     9 N    0.195
     9   7 N    3.409 --     7 C    1.315    78 H    0.931    77 H    0.930
                             8 O    0.195
    10   7 N    2.973 --    11 C    0.991    79 H    0.964    80 H    0.961
    11   6 C    3.985 --    12 C    0.993    10 N    0.991    81 H    0.973
                            14 C    0.963
    12   6 C    3.790 --    13 O    1.797    11 C    0.993    82 H    0.955
    13   8 O    1.920 --    12 C    1.797
    14   6 C    3.982 --    15 C    0.982    84 H    0.979    83 H    0.978
                            11 C    0.963
    15   6 C    3.990 --    17 C    1.013    16 C    1.003    14 C    0.982
                            85 H    0.972
    16   6 C    3.996 --    15 C    1.003    87 H    0.989    86 H    0.989
                            88 H    0.987
    17   6 C    3.995 --    15 C    1.013    89 H    0.987    91 H    0.986
                            90 H    0.985
    18   7 N    3.044 --    24 C    1.000    19 C    0.993    92 H    0.963
    19   6 C    3.988 --    18 N    0.993    22 C    0.972    93 H    0.967
                            20 C    0.965
    20   6 C    3.789 --    21 O    1.810    19 C    0.965    94 H    0.955
    21   8 O    1.935 --    20 C    1.810
    22   6 C    3.991 --    23 C    1.012    95 H    0.975    19 C    0.972
                            96 H    0.969
    23   6 C    3.999 --    22 C    1.012    24 C    1.006    97 H    0.977
                            98 H    0.973
    24   6 C    3.986 --    23 C    1.006    18 N    1.000   100 H    0.978
                            99 H    0.974
    25   7 N    2.984 --    26 C    0.995   101 H    0.967   102 H    0.960
    26   6 C    3.980 --    25 N    0.995    29 C    0.969   103 H    0.961
                            27 C    0.940
    27   6 C    3.940 --    28 O    1.625    37 N    1.309    26 C    0.940
    28   8 O    1.940 --    27 C    1.625    37 N    0.194
    29   6 C    3.993 --    30 C    1.005   104 H    0.972   105 H    0.970
                            26 C    0.969
    30   6 C    3.987 --    32 C    1.453    31 C    1.373    29 C    1.005
    31   6 C    3.992 --    33 C    1.477    30 C    1.373   106 H    0.970
                            34 C    0.117
    32   6 C    3.991 --    30 C    1.453    34 C    1.405   107 H    0.970
                            33 C    0.104
    33   6 C    3.991 --    31 C    1.477    35 C    1.362   108 H    0.969
                            32 C    0.104
    34   6 C    3.988 --    32 C    1.405    35 C    1.401   109 H    0.972
                            31 C    0.117
    35   6 C    3.935 --    34 C    1.401    33 C    1.362    36 O    1.046
    36   8 O    2.061 --    35 C    1.046   110 H    0.865
    37   7 N    3.459 --    27 C    1.309    38 C    0.959   111 H    0.915
                            28 O    0.194
    38   6 C    3.961 --    41 C    0.976    37 N    0.959    39 C    0.956
                           112 H    0.945
    39   6 C    3.946 --    40 O    1.632    45 N    1.282    38 C    0.956
    40   8 O    1.952 --    39 C    1.632    45 N    0.193
    41   6 C    3.986 --    42 C    0.989    38 C    0.976   114 H    0.974
                           113 H    0.971
    42   6 C    3.995 --    44 C    1.013    43 C    1.008    41 C    0.989
                           115 H    0.968
    43   6 C    3.994 --    42 C    1.008   117 H    0.986   116 H    0.985
                           118 H    0.985
    44   6 C    3.996 --    42 C    1.013   119 H    0.986   120 H    0.982
                           121 H    0.977
    45   7 N    3.443 --    39 C    1.282    46 C    0.958   122 H    0.926
                            40 O    0.193
    46   6 C    3.962 --    49 C    1.004    45 N    0.958   123 H    0.953
                            47 C    0.942
    47   6 C    3.949 --    48 O    1.632    50 N    1.303    46 C    0.942
    48   8 O    1.942 --    47 C    1.632    50 N    0.199
    49   6 C    3.986 --    46 C    1.004   124 H    0.983   125 H    0.979
                           126 H    0.976
    50   7 N    3.472 --    47 C    1.303    51 C    0.970   127 H    0.923
                            48 O    0.199
    51   6 C    3.957 --    50 N    0.970    54 C    0.964   128 H    0.952
                            52 C    0.933
    52   6 C    3.946 --    53 O    1.662    59 N    1.270    51 C    0.933
    53   8 O    1.963 --    52 C    1.662    59 N    0.168
    54   6 C    3.989 --    55 C    0.997   129 H    0.974   130 H    0.972
                            51 C    0.964
    55   6 C    3.989 --    54 C    0.997   131 H    0.982   132 H    0.968
                            56 C    0.938
    56   6 C    3.941 --    58 O    1.516    57 O    1.469    55 C    0.938
    57   8 O    1.758 --    56 C    1.469    58 O    0.221
    58   8 O    1.804 --    56 C    1.516    57 O    0.221
    59   7 N    3.403 --    52 C    1.270    60 C    0.941   133 H    0.890
                            53 O    0.168
    60   6 C    3.952 --    63 C    0.980   134 H    0.961    61 C    0.948
                            59 N    0.941
    61   6 C    3.797 --    62 O    1.842   135 H    0.954    60 C    0.948
    62   8 O    1.960 --    61 C    1.842
    63   6 C    3.988 --    64 C    0.992    60 C    0.980   136 H    0.973
                           137 H    0.966
    64   6 C    3.909 --    66 C    1.568    65 N    1.157    63 C    0.992
                            67 C    0.100
    65   7 N    3.527 --    67 C    1.272    64 C    1.157   139 H    0.912
    66   6 C    3.928 --    64 C    1.568    68 N    1.242   138 H    0.973
    67   6 C    2.948 --    68 N    1.519    65 N    1.272    64 C    0.100
    68   7 N    2.924 --    67 C    1.519    66 C    1.242
    69   1 H    0.972 --     1 N    0.954
    70   1 H    0.976 --     1 N    0.961
    71   1 H    0.994 --     2 C    0.958
    72   1 H    0.998 --     3 C    0.950
    73   1 H    0.998 --     5 C    0.980
    74   1 H    0.996 --     5 C    0.974
    75   1 H    0.995 --     6 C    0.960
    76   1 H    0.994 --     6 C    0.957
    77   1 H    0.948 --     9 N    0.930
    78   1 H    0.956 --     9 N    0.931
    79   1 H    0.976 --    10 N    0.964
    80   1 H    0.974 --    10 N    0.961
    81   1 H    1.000 --    11 C    0.973
    82   1 H    0.999 --    12 C    0.955
    83   1 H    0.996 --    14 C    0.978
    84   1 H    0.997 --    14 C    0.979
    85   1 H    0.999 --    15 C    0.972
    86   1 H    0.998 --    16 C    0.989
    87   1 H    0.999 --    16 C    0.989
    88   1 H    0.998 --    16 C    0.987
    89   1 H    0.998 --    17 C    0.987
    90   1 H    0.998 --    17 C    0.985
    91   1 H    0.999 --    17 C    0.986
    92   1 H    0.979 --    18 N    0.963
    93   1 H    0.998 --    19 C    0.967
    94   1 H    0.998 --    20 C    0.955
    95   1 H    0.999 --    22 C    0.975
    96   1 H    0.998 --    22 C    0.969
    97   1 H    0.999 --    23 C    0.977
    98   1 H    0.999 --    23 C    0.973
    99   1 H    0.998 --    24 C    0.974
   100   1 H    0.999 --    24 C    0.978
   101   1 H    0.978 --    25 N    0.967
   102   1 H    0.972 --    25 N    0.960
   103   1 H    0.998 --    26 C    0.961
   104   1 H    0.995 --    29 C    0.972
   105   1 H    0.996 --    29 C    0.970
   106   1 H    0.998 --    31 C    0.970
   107   1 H    0.998 --    32 C    0.970
   108   1 H    0.997 --    33 C    0.969
   109   1 H    0.997 --    34 C    0.972
   110   1 H    0.883 --    36 O    0.865
   111   1 H    0.949 --    37 N    0.915
   112   1 H    0.993 --    38 C    0.945
   113   1 H    0.995 --    41 C    0.971
   114   1 H    0.996 --    41 C    0.974
   115   1 H    0.999 --    42 C    0.968
   116   1 H    0.998 --    43 C    0.985
   117   1 H    0.998 --    43 C    0.986
   118   1 H    0.997 --    43 C    0.985
   119   1 H    0.998 --    44 C    0.986
   120   1 H    0.998 --    44 C    0.982
   121   1 H    0.999 --    44 C    0.977
   122   1 H    0.957 --    45 N    0.926
   123   1 H    0.992 --    46 C    0.953
   124   1 H    0.997 --    49 C    0.983
   125   1 H    0.994 --    49 C    0.979
   126   1 H    0.994 --    49 C    0.976
   127   1 H    0.962 --    50 N    0.923
   128   1 H    0.993 --    51 C    0.952
   129   1 H    0.997 --    54 C    0.974
   130   1 H    0.997 --    54 C    0.972
   131   1 H    0.999 --    55 C    0.982
   132   1 H    0.999 --    55 C    0.968
   133   1 H    0.953 --    59 N    0.890
   134   1 H    0.996 --    60 C    0.961
   135   1 H    0.996 --    61 C    0.954
   136   1 H    0.996 --    63 C    0.973
   137   1 H    0.997 --    63 C    0.966
   138   1 H    0.997 --    66 C    0.973
   139   1 H    0.979 --    65 N    0.912
 ---------------------------------------------------------------------------

Topologies differ in total number of bonds
Writing topology from bond orders to xtbtopo.mol

molecular dipole:
                 x           y           z       tot (Debye)
 q only:     -202.916     -70.823      12.790
   full:     -203.282     -69.711      13.120     547.245
molecular quadrupole (traceless):
                xx          xy          yy          xz          yz          zz
 q only:   -19195.010  -10764.743    7750.460    1940.856     755.773   11444.550
  q+dip:   -19310.232  -10622.511    7865.558    1995.691     767.213   11444.674
   full:   -19310.663  -10622.619    7864.442    1994.101     766.942   11446.221


           -------------------------------------------------
          | TOTAL ENERGY             -213.923226850252 Eh   |
          | GRADIENT NORM               0.354859141158 Eh/α |
          | HOMO-LUMO GAP               0.099447788655 eV   |
           -------------------------------------------------
########################################################################
[WARNING] Runtime exception occurred
-2- restart_readRestart: Dimension missmatch in restart file.
-1- restart_readRestart: Number of electron missmatch in restart file.
########################################################################

------------------------------------------------------------------------
 * finished run on 2025/05/05 at 16:59:23.764     
------------------------------------------------------------------------
 total:
 * wall-time:     0 d,  0 h,  0 min,  0.759 sec
 *  cpu-time:     0 d,  0 h,  0 min, 21.297 sec
 * ratio c/w:    28.072 speedup
 SCF:
 * wall-time:     0 d,  0 h,  0 min,  0.747 sec
 *  cpu-time:     0 d,  0 h,  0 min, 21.024 sec
 * ratio c/w:    28.141 speedup

