      -----------------------------------------------------------      
     |                   =====================                   |     
     |                           x T B                           |     
     |                   =====================                   |     
     |                         S. Grimme                         |     
     |          Mulliken Center for Theoretical Chemistry        |     
     |                    University of Bonn                     |     
      -----------------------------------------------------------      

   * xtb version 6.7.1 (edcfbbe) compiled by 'conda@afd1a870197c' on 2025-04-11

   xtb is free software: you can redistribute it and/or modify it under
   the terms of the GNU Lesser General Public License as published by
   the Free Software Foundation, either version 3 of the License, or
   (at your option) any later version.
   
   xtb is distributed in the hope that it will be useful,
   but WITHOUT ANY WARRANTY; without even the implied warranty of
   MERCHANTABILITY or FITNESS FOR A PARTICULAR PURPOSE.  See the
   GNU Lesser General Public License for more details.
   
   Cite this work as:
   * C. Bannwarth, E. Caldeweyher, S. Ehlert, A. Hansen, P. Pracht,
     J. Seibert, S. Spicher, S. Grimme, WIREs Comput. Mol. Sci., 2020, 11,
     e01493. DOI: 10.1002/wcms.1493
   
   for GFN2-xTB:
   * C. Bannwarth, S. Ehlert and S. Grimme., J. Chem. Theory Comput., 2019,
     15, 1652-1671. DOI: 10.1021/acs.jctc.8b01176
   for GFN1-xTB:
   * S. Grimme, C. Bannwarth, P. Shushkov, J. Chem. Theory Comput., 2017,
     13, 1989-2009. DOI: 10.1021/acs.jctc.7b00118
   for GFN0-xTB:
   * P. Pracht, E. Caldeweyher, S. Ehlert, S. Grimme, ChemRxiv, 2019, preprint.
     DOI: 10.26434/chemrxiv.8326202.v1
   for GFN-FF:
   * S. Spicher and S. Grimme, Angew. Chem. Int. Ed., 2020, 59, 15665-15673.
     DOI: 10.1002/anie.202004239
   
   for ALPB and GBSA implicit solvation:
   * S. Ehlert, M. Stahn, S. Spicher, S. Grimme, J. Chem. Theory Comput.,
     2021, 17, 4250-4261. DOI: 10.1021/acs.jctc.1c00471
   
   for ddCOSMO and CPCM-X implicit solvation:
   * M. Stahn, S. Ehlert, S. Grimme, J. Phys. Chem. A,
     2023, XX, XXXX-XXXX. DOI: 10.1021/acs.jpca.3c04382
   
   for DFT-D4:
   * E. Caldeweyher, C. Bannwarth and S. Grimme, J. Chem. Phys., 2017,
     147, 034112. DOI: 10.1063/1.4993215
   * E. Caldeweyher, S. Ehlert, A. Hansen, H. Neugebauer, S. Spicher,
     C. Bannwarth and S. Grimme, J. Chem. Phys., 2019, 150, 154122.
     DOI: 10.1063/1.5090222
   * E. Caldeweyher, J.-M. Mewes, S. Ehlert and S. Grimme, Phys. Chem. Chem. Phys.
     2020, 22, 8499-8512. DOI: 10.1039/D0CP00502A
   
   for sTDA-xTB:
   * S. Grimme and C. Bannwarth, J. Chem. Phys., 2016, 145, 054103.
     DOI: 10.1063/1.4959605
   
   in the mass-spec context:
   * V. Asgeirsson, C. Bauer and S. Grimme, Chem. Sci., 2017, 8, 4879.
     DOI: 10.1039/c7sc00601b
   * J. Koopman and S. Grimme, ACS Omega 2019, 4, 12, 15120-15133.
     DOI: 10.1021/acsomega.9b02011
   
   for metadynamics refer to:
   * S. Grimme, J. Chem. Theory Comput., 2019, 155, 2847-2862
     DOI: 10.1021/acs.jctc.9b00143
   
   for SPH calculations refer to:
   * S. Spicher and S. Grimme, J. Chem. Theory Comput., 2021, 17, 1701-1714
     DOI: 10.1021/acs.jctc.0c01306
   
   for ONIOM refer to:
   * C. Plett, A. Katbashev, S. Ehlert, S. Grimme, M. Bursch,
     Phys. Chem. Chem. Phys., 2023, 25, 17860-17868. DOI: 10.1039/D3CP02178E
   
   for DIPRO refer to:
   * J. Kohn, N. Gildemeister, S. Grimme, D. Fazzi, A. Hansen,
     J. Chem. Phys., 2023, just accepted.
   
   for PTB refer to:
   * S. Grimme, M. Mueller, A. Hansen, J. Chem. Phys., 2023, 158, 124111.
     DOI: 10.1063/5.0137838
   
   with help from (in alphabetical order)
   P. Atkinson, C. Bannwarth, F. Bohle, G. Brandenburg, E. Caldeweyher
   M. Checinski, S. Dohm, S. Ehlert, S. Ehrlich, I. Gerasimov, C. Hölzer
   A. Katbashev, J. Kohn, J. Koopman, C. Lavigne, S. Lehtola, F. März, M. Müller,
   F. Musil, H. Neugebauer, J. Pisarek, C. Plett, P. Pracht, F. Pultar,
   J. Seibert, P. Shushkov, S. Spicher, M. Stahn, M. Steiner, T. Strunk,
   J. Stückrath, T. Rose, and J. Unsleber
   
 * started run on 2025/05/05 at 16:40:26.744     
   ID    Z sym.   atoms
    1    7 N      1, 9, 16, 22, 25, 26, 34, 35, 43, 51, 58, 65, 74, 82, 90
    2    6 C      2, 3, 5, 6, 8, 10, 11, 13-15, 17, 18, 20, 21, 23, 24, 27,
                  28, 30-33, 36, 37, 39, 40, 42, 44, 45, 47-50, 52, 53,
                  55-57, 59, 60, 62-64, 66, 67, 69-71, 75, 76, 78-81, 83, 84,
                  86, 87, 91, 92, 94-100
    3    8 O      4, 12, 19, 29, 38, 46, 54, 61, 68, 72, 73, 77, 85, 88, 89,
                  93, 101
    4   16 S      7, 41
    5    1 H      102-270

           -------------------------------------------------
          |                Calculation Setup                |
           -------------------------------------------------

          program call               : xtb /tmp/tmpuaivx6hf/HID/input.xyz --alpb ether --chrg -1 --input /tmp/tmpuaivx6hf/HID/constraints.inp --gfn 2
          hostname                   : fedora
          coordinate file            : /tmp/tmpuaivx6hf/HID/input.xyz
          omp threads                :                    32


molecular fragmentation (1/2 indicates fragments):
111111111111111111111111111111111111111111222222222222222222222222222222
222222222222222222222222222222222222222222222222222222221111111111111111
111111111111111111111111112222222222222222222222222222222222222222222222
222222222222222222222222222222222222222222222222221111
# atoms in fragment 1/2:    88   182
 fragment masses (1/2) :      626.84      894.45
CMA distance (Bohr)    :  10.995
constraining FC (au)   :  0.0500

           -------------------------------------------------
          |                 G F N 2 - x T B                 |
           -------------------------------------------------

        Reference                      10.1021/acs.jctc.8b01176
      * Hamiltonian:
        H0-scaling (s, p, d)           1.850000    2.230000    2.230000
        zeta-weighting                 0.500000
      * Dispersion:
        s8                             2.700000
        a1                             0.520000
        a2                             5.000000
        s9                             5.000000
      * Repulsion:
        kExp                           1.500000    1.000000
        rExp                           1.000000
      * Coulomb:
        alpha                          2.000000
        third order                    shell-resolved
        anisotropic                    true
        a3                             3.000000
        a5                             4.000000
        cn-shift                       1.200000
        cn-exp                         4.000000
        max-rad                        5.000000

      * Solvation model:               ALPB
        Solvent                        ether
        Parameter file                 internal GFN2-xTB/ALPB
        Dielectric constant                4.3300E+00
        Reference state                gsolv [1 M gas/solution]
        Free energy shift                  4.9534E-03 Eh       3.1083E+00 kcal/mol
        Temperature                        2.9815E+02 K
        Density                            7.1300E-01 kg/L
        Solvent mass                       7.4120E+01 g/mol
        Interaction kernel             P16
        Born radius scaling (c1)           1.5847E+00
        Born radii integrator          GBOBC
        Born offset                        0.0000E+00 a0       0.0000E+00 AA
        H-bond correction              true
        Ion screening                  false
        Surface tension                    1.0000E-05 Eh       1.5569E+01 dyn/cm
        Grid points                               230 per atom

          ...................................................
          :                      SETUP                      :
          :.................................................:
          :  # basis functions                 585          :
          :  # atomic orbitals                 583          :
          :  # shells                          373          :
          :  # electrons                       627          :
          :  max. iterations                   250          :
          :  Hamiltonian                  GFN2-xTB          :
          :  restarted?                      false          :
          :  GBSA solvation                   true          :
          :  PC potential                    false          :
          :  electronic temp.          300.0000000     K    :
          :  accuracy                    1.0000000          :
          :  -> integral cutoff          0.2500000E+02      :
          :  -> integral neglect         0.1000000E-07      :
          :  -> SCF convergence          0.1000000E-05 Eh   :
          :  -> wf. convergence          0.1000000E-03 e    :
          :  Broyden damping             0.4000000          :
          :  net charge                         -1          :
          :  unpaired electrons                  0          :
          ...................................................

 iter      E             dE          RMSdq      gap      omega  full diag
   1   -352.3271107 -0.352327E+03  0.421E+00    2.42       0.0  T
   2   -351.3751000  0.952011E+00  0.286E+00    0.05       1.0  T
   3   -351.8049740 -0.429874E+00  0.241E+00    0.12       1.0  T
   4   -353.3609085 -0.155593E+01  0.130E+00    0.67       1.0  T
   5   -353.4412431 -0.803346E-01  0.861E-01    0.85       1.0  T
   6   -353.5460212 -0.104778E+00  0.607E-01    1.15       1.0  T
   7   -353.4264105  0.119611E+00  0.650E-01    0.94       1.0  T
   8   -353.5761907 -0.149780E+00  0.355E-01    0.88       1.0  T
   9   -353.5837682 -0.757758E-02  0.249E-01    0.81       1.0  T
  10   -353.4978343  0.859339E-01  0.492E-01    0.75       1.0  T
  11   -353.5913014 -0.934671E-01  0.168E-01    0.73       1.0  T
  12   -353.5942511 -0.294971E-02  0.142E-01    0.75       1.0  T
  13   -353.5402836  0.539675E-01  0.347E-01    0.73       1.0  T
  14   -353.6004748 -0.601912E-01  0.760E-02    0.73       1.0  T
  15   -353.5959652  0.450963E-02  0.114E-01    0.72       1.0  T
  16   -353.6001545 -0.418938E-02  0.724E-02    0.70       1.0  T
  17   -353.6005706 -0.416033E-03  0.627E-02    0.71       1.0  T
  18   -353.6016922 -0.112160E-02  0.356E-02    0.72       1.0  T
  19   -353.6018700 -0.177866E-03  0.296E-02    0.72       1.0  T
  20   -353.6018956 -0.255316E-04  0.278E-02    0.74       1.0  T
  21   -353.6021116 -0.215981E-03  0.161E-02    0.74       1.0  T
  22   -353.6021657 -0.541601E-04  0.128E-02    0.74       1.0  T
  23   -353.6022059 -0.401407E-04  0.870E-03    0.73       1.0  T
  24   -353.6022381 -0.322533E-04  0.187E-03    0.73       3.3  T
  25   -353.6022396 -0.145789E-05  0.813E-04    0.73       7.5  T
  26   -353.6022398 -0.225657E-06  0.350E-04    0.73      17.4  T
  27   -353.6022398 -0.507090E-07  0.153E-04    0.73      39.7  T

   *** convergence criteria satisfied after 27 iterations ***

         #    Occupation            Energy/Eh            Energy/eV
      -------------------------------------------------------------
         1        2.0000           -0.7245332             -19.7156
       ...           ...                  ...                  ...
       308        2.0000           -0.3433255              -9.3424
       309        2.0000           -0.3370745              -9.1723
       310        2.0000           -0.3342449              -9.0953
       311        1.9921           -0.3236433              -8.8068
       312        1.9035           -0.3211824              -8.7398
       313        1.8609           -0.3207889              -8.7291
       314        1.2436           -0.3179812              -8.6527 (HOMO)
       315        0.0000           -0.2910374              -7.9195 (LUMO)
       316                         -0.2815716              -7.6620
       317                         -0.2798631              -7.6155
       318                         -0.2783926              -7.5754
       319                         -0.2641021              -7.1866
       ...                                ...                  ...
       583                          1.2254857              33.3472
      -------------------------------------------------------------
                  HL-Gap            0.0269438 Eh            0.7332 eV
             Fermi-level           -0.3117632 Eh           -8.4835 eV

 SCC (total)                   0 d,  0 h,  0 min,  1.404 sec
 SCC setup                      ...        0 min,  0.004 sec (  0.314%)
 Dispersion                     ...        0 min,  0.011 sec (  0.763%)
 classical contributions        ...        0 min,  0.000 sec (  0.026%)
 integral evaluation            ...        0 min,  0.017 sec (  1.199%)
 iterations                     ...        0 min,  1.274 sec ( 90.775%)
 molecular gradient             ...        0 min,  0.089 sec (  6.317%)
 printout                       ...        0 min,  0.008 sec (  0.602%)

         :::::::::::::::::::::::::::::::::::::::::::::::::::::
         ::                     SUMMARY                     ::
         :::::::::::::::::::::::::::::::::::::::::::::::::::::
         :: total energy            -346.907334672215 Eh    ::
         :: total w/o Gsasa/hb      -346.806975279721 Eh    ::
         :: gradient norm              1.494415015059 Eh/a0 ::
         :: HOMO-LUMO gap              0.733178826483 eV    ::
         ::.................................................::
         :: SCC energy              -353.578353880070 Eh    ::
         :: -> isotropic ES            0.996644900558 Eh    ::
         :: -> anisotropic ES          0.128885105384 Eh    ::
         :: -> anisotropic XC          0.284127499936 Eh    ::
         :: -> dispersion             -0.295328414323 Eh    ::
         :: -> Gsolv                  -0.298556881009 Eh    ::
         ::    -> Gelec               -0.198197488515 Eh    ::
         ::    -> Gsasa               -0.086082057126 Eh    ::
         ::    -> Ghb                 -0.019230772946 Eh    ::
         ::    -> Gshift               0.004953437577 Eh    ::
         :: repulsion energy           6.671019207854 Eh    ::
         :: add. restraining           0.000000000000 Eh    ::
         :: total charge              -0.999999999957 e     ::
         :::::::::::::::::::::::::::::::::::::::::::::::::::::

           -------------------------------------------------
          |                Property Printout                |
           -------------------------------------------------

    * Orbital Energies and Occupations

         #    Occupation            Energy/Eh            Energy/eV
      -------------------------------------------------------------
         1        2.0000           -0.7245332             -19.7156
       ...           ...                  ...                  ...
       302        2.0000           -0.3535094              -9.6195
       303        2.0000           -0.3527826              -9.5997
       304        2.0000           -0.3495099              -9.5106
       305        2.0000           -0.3491913              -9.5020
       306        2.0000           -0.3466385              -9.4325
       307        2.0000           -0.3458646              -9.4115
       308        2.0000           -0.3433255              -9.3424
       309        2.0000           -0.3370745              -9.1723
       310        2.0000           -0.3342449              -9.0953
       311        1.9921           -0.3236433              -8.8068
       312        1.9035           -0.3211824              -8.7398
       313        1.8609           -0.3207889              -8.7291
       314        1.2436           -0.3179812              -8.6527 (HOMO)
       315        0.0000           -0.2910374              -7.9195 (LUMO)
       316                         -0.2815716              -7.6620
       317                         -0.2798631              -7.6155
       318                         -0.2783926              -7.5754
       319                         -0.2641021              -7.1866
       320                         -0.2373537              -6.4587
       321                         -0.2256088              -6.1391
       322                         -0.2102800              -5.7220
       323                         -0.2063061              -5.6139
       324                         -0.2006454              -5.4598
       325                         -0.2001747              -5.4470
       ...                                ...                  ...
       583                          1.2254857              33.3472
      -------------------------------------------------------------
                  HL-Gap            0.0269438 Eh            0.7332 eV
             Fermi-level           -0.3117632 Eh           -8.4835 eV

     #   Z          covCN         q      C6AA      α(0)
     1   7 N        2.632    -0.367    29.462     8.061
     2   6 C        3.785     0.040    19.911     6.356
     3   6 C        2.761     0.256    22.694     7.801
     4   8 O        0.859    -0.492    23.612     6.515
     5   6 C        3.814    -0.063    21.696     6.630
     6   6 C        3.795    -0.013    20.812     6.496
     7  16 S        1.947    -0.245   151.579    20.722
     8   6 C        3.749    -0.053    21.585     6.626
     9   7 N        2.755    -0.102    23.239     7.160
    10   6 C        3.827     0.020    20.224     6.399
    11   6 C        2.757     0.276    22.325     7.737
    12   8 O        0.859    -0.504    23.877     6.551
    13   6 C        3.834    -0.063    21.686     6.625
    14   6 C        3.835    -0.065    21.714     6.630
    15   6 C        3.762    -0.004    20.696     6.485
    16   7 N        2.689    -0.157    24.394     7.335
    17   6 C        3.799     0.025    20.159     6.393
    18   6 C        2.752     0.268    22.468     7.762
    19   8 O        0.858    -0.505    23.892     6.553
    20   6 C        3.810    -0.074    21.915     6.664
    21   6 C        3.089     0.009    27.718     8.630
    22   7 N        2.849    -0.088    22.951     7.115
    23   6 C        3.061    -0.027    28.618     8.773
    24   6 C        2.111    -0.036    31.816     9.115
    25   7 N        1.980    -0.285    28.205     7.876
    26   7 N        2.686    -0.163    24.531     7.356
    27   6 C        3.793     0.019    20.264     6.410
    28   6 C        2.757     0.265    22.531     7.773
    29   8 O        0.858    -0.476    23.254     6.465
    30   6 C        3.815    -0.072    21.870     6.656
    31   6 C        3.805    -0.077    21.962     6.672
    32   6 C        3.809    -0.091    22.226     6.711
    33   6 C        3.734    -0.051    21.587     6.631
    34   7 N        3.486    -0.168    24.628     7.371
    35   7 N        2.685    -0.162    24.508     7.353
    36   6 C        3.792     0.026    20.153     6.393
    37   6 C        2.760     0.197    23.806     7.990
    38   8 O        0.856    -0.349    20.689     6.098
    39   6 C        3.840    -0.065    21.719     6.630
    40   6 C        3.800    -0.015    20.841     6.500
    41  16 S        1.978    -0.227   150.764    20.666
    42   6 C        3.751    -0.058    21.674     6.639
    43   7 N        2.634    -0.359    29.244     8.031
    44   6 C        3.784     0.036    19.991     6.369
    45   6 C        2.768     0.197    23.799     7.990
    46   8 O        0.856    -0.368    21.047     6.151
    47   6 C        3.814    -0.074    21.900     6.661
    48   6 C        3.850    -0.012    20.758     6.480
    49   6 C        3.761    -0.112    22.696     6.791
    50   6 C        3.758    -0.117    22.796     6.807
    51   7 N        2.634    -0.352    29.073     8.008
    52   6 C        3.787     0.035    20.000     6.370
    53   6 C        2.766     0.201    23.724     7.977
    54   8 O        0.856    -0.369    21.078     6.155
    55   6 C        3.850    -0.020    20.902     6.503
    56   6 C        3.757    -0.122    22.890     6.821
    57   6 C        3.757    -0.115    22.752     6.801
    58   7 N        2.636    -0.362    29.332     8.044
    59   6 C        3.783     0.031    20.074     6.382
    60   6 C        2.769     0.202    23.707     7.974
    61   8 O        0.856    -0.365    20.989     6.142
    62   6 C        3.848    -0.020    20.903     6.503
    63   6 C        3.760    -0.116    22.762     6.801
    64   6 C        3.761    -0.112    22.682     6.789
    65   7 N        2.632    -0.363    29.364     8.048
    66   6 C        3.792     0.029    20.088     6.383
    67   6 C        2.761     0.272    22.400     7.751
    68   8 O        0.858    -0.513    24.069     6.578
    69   6 C        3.813    -0.050    21.464     6.594
    70   6 C        3.810    -0.078    21.989     6.675
    71   6 C        2.691     0.369    20.747     7.454
    72   8 O        0.857    -0.613    26.448     6.895
    73   8 O        0.857    -0.607    26.285     6.874
    74   7 N        2.693    -0.161    24.474     7.347
    75   6 C        3.804     0.028    20.102     6.383
    76   6 C        2.762     0.274    22.374     7.746
    77   8 O        0.858    -0.518    24.184     6.593
    78   6 C        3.818    -0.083    22.061     6.685
    79   6 C        3.851    -0.013    20.765     6.481
    80   6 C        3.761    -0.120    22.844     6.813
    81   6 C        3.761    -0.110    22.644     6.783
    82   7 N        2.691    -0.228    25.994     7.572
    83   6 C        3.791     0.046    19.805     6.338
    84   6 C        2.760     0.184    24.043     8.030
    85   8 O        0.856    -0.388    21.453     6.210
    86   6 C        3.804    -0.090    22.213     6.710
    87   6 C        2.685     0.368    20.753     7.455
    88   8 O        0.857    -0.574    25.482     6.768
    89   8 O        0.857    -0.603    26.196     6.862
    90   7 N        2.630    -0.356    29.166     8.021
    91   6 C        3.788     0.046    19.814     6.340
    92   6 C        2.772     0.192    23.894     8.006
    93   8 O        0.856    -0.362    20.929     6.134
    94   6 C        3.822    -0.071    21.833     6.649
    95   6 C        2.972    -0.010    28.257     8.719
    96   6 C        2.930    -0.055    29.361     8.886
    97   6 C        2.932    -0.052    29.288     8.875
    98   6 C        2.919    -0.080    30.008     8.983
    99   6 C        2.919    -0.056    29.381     8.889
   100   6 C        2.856     0.152    24.703     8.146
   101   8 O        1.661    -0.427    21.369     6.240
   102   1 H        0.980    -0.003     3.097     2.750
   103   1 H        0.980    -0.007     3.173     2.783
   104   1 H        0.980     0.000     3.045     2.727
   105   1 H        0.980     0.009     2.892     2.657
   106   1 H        0.980    -0.015     3.314     2.845
   107   1 H        0.980    -0.007     3.170     2.782
   108   1 H        0.980     0.016     2.784     2.607
   109   1 H        0.980     0.017     2.778     2.604
   110   1 H        0.980     0.029     2.599     2.519
   111   1 H        0.980    -0.022     3.460     2.907
   112   1 H        0.980    -0.016     3.334     2.853
   113   1 H        0.980     0.048     2.338     2.389
   114   1 H        0.980     0.013     2.827     2.627
   115   1 H        0.980     0.015     2.809     2.619
   116   1 H        0.980    -0.006     3.157     2.776
   117   1 H        0.980     0.027     2.626     2.532
   118   1 H        0.980     0.009     2.890     2.657
   119   1 H        0.980     0.004     2.987     2.701
   120   1 H        0.980     0.002     3.017     2.714
   121   1 H        0.980     0.011     2.860     2.642
   122   1 H        0.980    -0.013     3.278     2.829
   123   1 H        0.980    -0.011     3.243     2.814
   124   1 H        0.980     0.025     2.646     2.542
   125   1 H        0.980    -0.006     3.148     2.772
   126   1 H        0.980     0.020     2.730     2.582
   127   1 H        0.980    -0.004     3.119     2.760
   128   1 H        0.980    -0.010     3.236     2.811
   129   1 H        0.860     0.153     1.381     1.841
   130   1 H        0.860     0.163     1.318     1.799
   131   1 H        0.927     0.011     2.869     2.649
   132   1 H        0.927     0.068     2.106     2.269
   133   1 H        0.927     0.047     2.362     2.403
   134   1 H        0.927     0.075     2.036     2.231
   135   1 H        0.927     0.041     2.440     2.443
   136   1 H        0.927     0.062     2.175     2.306
   137   1 H        0.927     0.057     2.237     2.339
   138   1 H        0.927     0.050     2.320     2.382
   139   1 H        0.927     0.082     1.961     2.190
   140   1 H        0.927     0.061     2.182     2.310
   141   1 H        0.927     0.063     2.169     2.303
   142   1 H        0.927     0.066     2.125     2.280
   143   1 H        0.927     0.053     2.280     2.361
   144   1 H        0.927     0.065     2.136     2.285
   145   1 H        0.927     0.058     2.221     2.330
   146   1 H        0.861     0.208     1.067     1.618
   147   1 H        0.927     0.079     1.988     2.205
   148   1 H        0.927     0.063     2.164     2.300
   149   1 H        0.927     0.063     2.163     2.300
   150   1 H        1.034     0.082     1.952     2.182
   151   1 H        0.861     0.229     0.970     1.543
   152   1 H        0.927     0.085     1.932     2.174
   153   1 H        0.927     0.059     2.211     2.325
   154   1 H        0.927     0.066     2.126     2.280
   155   1 H        0.926     0.050     2.321     2.383
   156   1 H        0.927     0.057     2.231     2.336
   157   1 H        0.926     0.087     1.909     2.161
   158   1 H        0.927     0.071     2.069     2.249
   159   1 H        0.927     0.121     1.605     1.981
   160   1 H        0.926     0.120     1.617     1.988
   161   1 H        0.861     0.217     1.025     1.586
   162   1 H        0.926     0.092     1.856     2.130
   163   1 H        0.929     0.078     1.996     2.209
   164   1 H        0.927     0.067     2.119     2.276
   165   1 H        0.927     0.074     2.040     2.233
   166   1 H        0.927     0.066     2.129     2.282
   167   1 H        0.927     0.061     2.190     2.314
   168   1 H        0.927     0.071     2.073     2.251
   169   1 H        0.927     0.055     2.264     2.353
   170   1 H        0.927     0.060     2.198     2.318
   171   1 H        0.860     0.153     1.382     1.842
   172   1 H        0.860     0.160     1.335     1.810
   173   1 H        0.927     0.066     2.132     2.283
   174   1 H        0.929     0.063     2.169     2.303
   175   1 H        0.927     0.049     2.333     2.388
   176   1 H        0.927     0.049     2.333     2.389
   177   1 H        0.927     0.029     2.602     2.522
   178   1 H        0.927     0.043     2.407     2.426
   179   1 H        0.927     0.034     2.529     2.487
   180   1 H        0.927     0.044     2.391     2.418
   181   1 H        0.927     0.040     2.450     2.448
   182   1 H        0.927     0.038     2.470     2.458
   183   1 H        0.926     0.041     2.438     2.442
   184   1 H        0.860     0.156     1.363     1.829
   185   1 H        0.860     0.160     1.336     1.811
   186   1 H        0.927     0.052     2.291     2.367
   187   1 H        0.929     0.069     2.097     2.265
   188   1 H        0.927     0.039     2.456     2.451
   189   1 H        0.927     0.044     2.394     2.420
   190   1 H        0.927     0.037     2.495     2.470
   191   1 H        0.927     0.052     2.289     2.366
   192   1 H        0.927     0.042     2.421     2.433
   193   1 H        0.927     0.051     2.302     2.372
   194   1 H        0.927     0.042     2.419     2.432
   195   1 H        0.860     0.166     1.298     1.785
   196   1 H        0.860     0.165     1.306     1.790
   197   1 H        0.927     0.049     2.326     2.385
   198   1 H        0.929     0.063     2.167     2.302
   199   1 H        0.927     0.038     2.469     2.457
   200   1 H        0.927     0.041     2.429     2.437
   201   1 H        0.927     0.032     2.555     2.500
   202   1 H        0.927     0.051     2.303     2.373
   203   1 H        0.927     0.042     2.423     2.434
   204   1 H        0.927     0.052     2.297     2.370
   205   1 H        0.927     0.042     2.427     2.436
   206   1 H        0.860     0.151     1.398     1.852
   207   1 H        0.860     0.179     1.222     1.732
   208   1 H        0.927     0.028     2.611     2.527
   209   1 H        0.927     0.038     2.470     2.458
   210   1 H        0.927     0.037     2.493     2.469
   211   1 H        0.927     0.031     2.576     2.510
   212   1 H        0.927     0.029     2.600     2.521
   213   1 H        0.861     0.209     1.062     1.614
   214   1 H        0.927     0.063     2.165     2.301
   215   1 H        0.927     0.065     2.146     2.291
   216   1 H        0.927     0.059     2.215     2.328
   217   1 H        0.927     0.033     2.547     2.495
   218   1 H        0.927     0.050     2.321     2.382
   219   1 H        0.927     0.042     2.416     2.431
   220   1 H        0.927     0.048     2.347     2.396
   221   1 H        0.927     0.040     2.455     2.450
   222   1 H        0.927     0.044     2.402     2.424
   223   1 H        0.926     0.032     2.564     2.504
   224   1 H        0.966     0.248     0.885     1.470
   225   1 H        0.927     0.075     2.033     2.229
   226   1 H        0.929     0.098     1.801     2.099
   227   1 H        0.927     0.048     2.339     2.391
   228   1 H        0.926     0.057     2.229     2.335
   229   1 H        0.860     0.153     1.383     1.842
   230   1 H        0.860     0.155     1.367     1.832
   231   1 H        0.927     0.036     2.507     2.476
   232   1 H        0.929     0.058     2.220     2.330
   233   1 H        0.927     0.052     2.297     2.370
   234   1 H        0.926     0.068     2.104     2.268
   235   1 H        0.929     0.042     2.415     2.430
   236   1 H        0.929     0.061     2.186     2.312
   237   1 H        0.929     0.044     2.401     2.423
   238   1 H        0.929     0.063     2.158     2.297
   239   1 H        0.807     0.338     0.617     1.234
   240   1 H        0.980     0.002     3.006     2.709
   241   1 H        0.980     0.010     2.876     2.650
   242   1 H        0.980    -0.000     3.051     2.729
   243   1 H        0.980    -0.010     3.225     2.806
   244   1 H        0.980     0.016     2.782     2.606
   245   1 H        0.980     0.033     2.535     2.488
   246   1 H        0.980    -0.032     3.658     2.988
   247   1 H        0.980    -0.027     3.554     2.946
   248   1 H        0.980    -0.014     3.301     2.839
   249   1 H        0.980     0.018     2.758     2.595
   250   1 H        0.980     0.004     2.984     2.699
   251   1 H        0.980    -0.018     3.383     2.874
   252   1 H        0.980    -0.013     3.292     2.835
   253   1 H        0.980    -0.028     3.583     2.958
   254   1 H        0.980     0.022     2.689     2.562
   255   1 H        0.980    -0.029     3.593     2.962
   256   1 H        0.980    -0.009     3.210     2.799
   257   1 H        0.980    -0.004     3.111     2.756
   258   1 H        0.980    -0.001     3.068     2.737
   259   1 H        0.980    -0.010     3.226     2.806
   260   1 H        0.980     0.013     2.838     2.633
   261   1 H        0.980     0.000     3.045     2.727
   262   1 H        0.980    -0.016     3.344     2.858
   263   1 H        0.980     0.007     2.930     2.675
   264   1 H        0.980    -0.016     3.349     2.860
   265   1 H        0.980     0.003     2.996     2.705
   266   1 H        0.980     0.006     2.942     2.680
   267   1 H        0.860     0.298     0.719     1.328
   268   1 H        0.860     0.304     0.701     1.311
   269   1 H        0.860     0.299     0.716     1.326
   270   1 H        0.858     0.170     1.273     1.767

 Mol. C6AA /au·bohr⁶  :     573816.937240
 Mol. C8AA /au·bohr⁸  :   12255502.843300
 Mol. α(0) /au        :       1146.231699


Wiberg/Mayer (AO) data.
largest (>0.10) Wiberg bond orders for each atom

 ---------------------------------------------------------------------------
     #   Z sym  total        # sym  WBO       # sym  WBO       # sym  WBO
 ---------------------------------------------------------------------------
     1   7 N    2.990 --     2 C    1.009   129 H    0.963   130 H    0.957
     2   6 C    3.987 --     1 N    1.009     5 C    0.984   131 H    0.952
                             3 C    0.935
     3   6 C    3.946 --     4 O    1.634     9 N    1.291     2 C    0.935
     4   8 O    1.953 --     3 C    1.634     9 N    0.198
     5   6 C    3.994 --     6 C    1.006     2 C    0.984   133 H    0.974
                           132 H    0.968
     6   6 C    3.973 --     5 C    1.006     7 S    0.980   135 H    0.977
                           134 H    0.958
     7  16 S    2.079 --     8 C    1.008     6 C    0.980
     8   6 C    3.978 --     7 S    1.008   137 H    0.983   136 H    0.977
                           138 H    0.974
     9   7 N    3.510 --     3 C    1.291    10 C    0.968    15 C    0.966
                             4 O    0.198
    10   6 C    3.967 --    13 C    0.972     9 N    0.968   139 H    0.954
                            11 C    0.943
    11   6 C    3.948 --    12 O    1.622    16 N    1.311    10 C    0.943
    12   8 O    1.930 --    11 C    1.622    16 N    0.194
    13   6 C    3.989 --    14 C    1.011   140 H    0.976    10 C    0.972
                           141 H    0.972
    14   6 C    3.993 --    13 C    1.011    15 C    1.003   143 H    0.978
                           142 H    0.974
    15   6 C    3.966 --    14 C    1.003   145 H    0.969     9 N    0.966
                           144 H    0.966
    16   7 N    3.480 --    11 C    1.311    17 C    0.980   146 H    0.924
                            12 O    0.194
    17   6 C    3.965 --    16 N    0.980    20 C    0.965   147 H    0.949
                            18 C    0.940
    18   6 C    3.951 --    19 O    1.602    26 N    1.331    17 C    0.940
    19   8 O    1.929 --    18 C    1.602    26 N    0.198
    20   6 C    3.991 --    21 C    1.008   149 H    0.970    17 C    0.965
                           148 H    0.958
    21   6 C    3.927 --    23 C    1.563    22 N    1.152    20 C    1.008
                            24 C    0.120
    22   7 N    3.556 --    24 C    1.309    21 C    1.152   270 H    0.931
    23   6 C    3.943 --    21 C    1.563    25 N    1.246   150 H    0.826
                            82 N    0.112
    24   6 C    3.189 --    25 N    1.675    22 N    1.309    21 C    0.120
    25   7 N    3.086 --    24 C    1.675    23 C    1.246
    26   7 N    3.489 --    18 C    1.331    27 C    0.979   151 H    0.895
                            19 O    0.198
    27   6 C    3.965 --    26 N    0.979    30 C    0.966   152 H    0.952
                            28 C    0.942
    28   6 C    3.949 --    29 O    1.623    35 N    1.301    27 C    0.942
    29   8 O    1.971 --    28 C    1.623    35 N    0.191
    30   6 C    3.988 --    31 C    1.005   153 H    0.972   154 H    0.971
                            27 C    0.966
    31   6 C    3.994 --    30 C    1.005    32 C    1.001   155 H    0.979
                           156 H    0.977
    32   6 C    3.985 --    33 C    1.012    31 C    1.001   158 H    0.972
                           157 H    0.965
    33   6 C    3.907 --    32 C    1.012   160 H    0.967   159 H    0.964
                            34 N    0.943
    34   7 N    3.652 --    33 C    0.943   267 H    0.897   268 H    0.895
                           269 H    0.894
    35   7 N    3.469 --    28 C    1.301    36 C    0.975   161 H    0.925
                            29 O    0.191
    36   6 C    3.963 --    37 C    0.975    35 N    0.975    39 C    0.956
                           162 H    0.946
    37   6 C    3.903 --    38 O    1.908    36 C    0.975   163 H    0.950
    38   8 O    2.052 --    37 C    1.908
    39   6 C    3.988 --    40 C    1.006   164 H    0.973   165 H    0.958
                            36 C    0.956
    40   6 C    3.980 --    39 C    1.006    41 S    0.994   167 H    0.972
                           166 H    0.971
    41  16 S    2.108 --    42 C    1.013    40 C    0.994
    42   6 C    3.976 --    41 S    1.013   170 H    0.982   169 H    0.982
                           168 H    0.978
    43   7 N    3.004 --    44 C    1.024   171 H    0.961   172 H    0.956
    44   6 C    3.988 --    43 N    1.024    45 C    0.992    47 C    0.946
                           173 H    0.943
    45   6 C    3.903 --    46 O    1.886    44 C    0.992   174 H    0.952
    46   8 O    2.037 --    45 C    1.886
    47   6 C    3.990 --    48 C    0.991   175 H    0.974   176 H    0.969
                            44 C    0.946
    48   6 C    3.996 --    50 C    1.007    49 C    1.004    47 C    0.991
                           177 H    0.971
    49   6 C    3.993 --    48 C    1.004   179 H    0.986   178 H    0.985
                           180 H    0.980
    50   6 C    3.995 --    48 C    1.007   181 H    0.987   183 H    0.983
                           182 H    0.978
    51   7 N    3.007 --    52 C    1.015   185 H    0.958   184 H    0.952
    52   6 C    3.985 --    51 N    1.015    53 C    0.983   186 H    0.964
                            55 C    0.942
    53   6 C    3.893 --    54 O    1.896    52 C    0.983   187 H    0.953
    54   8 O    2.034 --    53 C    1.896
    55   6 C    3.993 --    57 C    1.006    56 C    1.006   188 H    0.970
                            52 C    0.942
    56   6 C    3.995 --    55 C    1.006   189 H    0.988   191 H    0.986
                           190 H    0.982
    57   6 C    3.995 --    55 C    1.006   193 H    0.983   192 H    0.980
                           194 H    0.979
    58   7 N    3.005 --    59 C    1.013   196 H    0.957   195 H    0.945
    59   6 C    3.985 --    58 N    1.013    60 C    0.990   197 H    0.965
                            62 C    0.932
    60   6 C    3.898 --    61 O    1.898    59 C    0.990   198 H    0.952
    61   8 O    2.041 --    60 C    1.898
    62   6 C    3.993 --    63 C    1.009    64 C    1.009   199 H    0.971
                            59 C    0.932
    63   6 C    3.996 --    62 C    1.009   201 H    0.986   200 H    0.984
                           202 H    0.984
    64   6 C    3.995 --    62 C    1.009   203 H    0.981   204 H    0.978
                           205 H    0.976
    65   7 N    2.996 --    66 C    1.013   206 H    0.959   207 H    0.926
    66   6 C    3.986 --    65 N    1.013    69 C    0.966   208 H    0.965
                            67 C    0.952
    67   6 C    3.943 --    68 O    1.587    74 N    1.326    66 C    0.952
    68   8 O    1.919 --    67 C    1.587    74 N    0.190
    69   6 C    3.992 --    70 C    1.005   210 H    0.978   209 H    0.975
                            66 C    0.966
    70   6 C    3.945 --    69 C    1.005   212 H    0.966   211 H    0.964
                            71 C    0.922
    71   6 C    3.930 --    73 O    1.495    72 O    1.489    70 C    0.922
    72   8 O    1.767 --    71 C    1.489    73 O    0.219
    73   8 O    1.770 --    71 C    1.495    72 O    0.219
    74   7 N    3.489 --    67 C    1.326    75 C    0.977   213 H    0.924
                            68 O    0.190
    75   6 C    3.967 --    74 N    0.977    78 C    0.975   214 H    0.949
                            76 C    0.938
    76   6 C    3.951 --    77 O    1.609    82 N    1.322    75 C    0.938
    77   8 O    1.923 --    76 C    1.609    82 N    0.201
    78   6 C    3.983 --    79 C    0.991    75 C    0.975   216 H    0.973
                           215 H    0.970
    79   6 C    3.995 --    81 C    1.011    80 C    1.002    78 C    0.991
                           217 H    0.970
    80   6 C    3.993 --    79 C    1.002   219 H    0.985   220 H    0.985
                           218 H    0.981
    81   6 C    3.997 --    79 C    1.011   222 H    0.986   223 H    0.985
                           221 H    0.984
    82   7 N    3.453 --    76 C    1.322    83 C    0.981   224 H    0.755
                            77 O    0.201    23 C    0.112
    83   6 C    3.967 --    82 N    0.981    84 C    0.971    86 C    0.970
                           225 H    0.937
    84   6 C    3.880 --    85 O    1.871    83 C    0.971   226 H    0.880
    85   8 O    2.023 --    84 C    1.871
    86   6 C    3.941 --    83 C    0.970   228 H    0.966   227 H    0.964
                            87 C    0.899
    87   6 C    3.937 --    88 O    1.516    89 O    1.501    86 C    0.899
    88   8 O    1.830 --    87 C    1.516    89 O    0.219
    89   8 O    1.790 --    87 C    1.501    88 O    0.219
    90   7 N    2.989 --    91 C    1.011   229 H    0.964   230 H    0.958
    91   6 C    3.990 --    90 N    1.011    92 C    1.001   231 H    0.951
                            94 C    0.940
    92   6 C    3.909 --    93 O    1.885    91 C    1.001   232 H    0.950
    93   8 O    2.034 --    92 C    1.885
    94   6 C    3.990 --    95 C    1.007   234 H    0.970   233 H    0.969
                            91 C    0.940
    95   6 C    3.986 --    96 C    1.416    97 C    1.381    94 C    1.007
    96   6 C    3.991 --    98 C    1.446    95 C    1.416   235 H    0.972
                            99 C    0.104
    97   6 C    3.991 --    99 C    1.480    95 C    1.381   236 H    0.962
    98   6 C    3.986 --    96 C    1.446   100 C    1.373   237 H    0.970
    99   6 C    3.989 --    97 C    1.480   100 C    1.346   238 H    0.961
                            96 C    0.104
   100   6 C    3.929 --    98 C    1.373    99 C    1.346   101 O    1.076
   101   8 O    2.107 --   100 C    1.076   239 H    0.865
   102   1 H    1.000 --   240 H    0.998
   103   1 H    1.000 --   241 H    0.985
   104   1 H    1.000 --   242 H    0.992
   105   1 H    1.000 --   243 H    0.967
   106   1 H    1.000 --   244 H    0.964
   107   1 H    1.000 --   245 H    0.883
   108   1 H    1.000 --   246 H    0.952
   109   1 H    1.000 --   247 H    0.923
   110   1 H    0.999 --   248 H    0.919
   111   1 H    1.000 --   249 H    0.942
   112   1 H    1.000 --   250 H    0.964
   113   1 H    0.997 --   251 H    0.918
   114   1 H    1.000 --   252 H    0.990
   115   1 H    1.000 --   253 H    0.965
   116   1 H    1.000 --   254 H    0.907
   117   1 H    0.999 --   255 H    0.926
   118   1 H    1.000 --   256 H    0.983
   119   1 H    1.000 --   257 H    0.990
   120   1 H    1.000 --   258 H    0.983
   121   1 H    1.000 --   259 H    0.970
   122   1 H    1.000 --   260 H    0.963
   123   1 H    1.000 --   261 H    0.969
   124   1 H    0.999 --   262 H    0.921
   125   1 H    1.000 --   263 H    0.931
   126   1 H    1.000 --   264 H    0.965
   127   1 H    1.000 --   265 H    0.969
   128   1 H    1.000 --   266 H    0.969
   129   1 H    0.976 --     1 N    0.963
   130   1 H    0.973 --     1 N    0.957
   131   1 H    1.000 --     2 C    0.952
   132   1 H    0.995 --     5 C    0.968
   133   1 H    0.997 --     5 C    0.974
   134   1 H    0.994 --     6 C    0.958
   135   1 H    0.998 --     6 C    0.977
   136   1 H    0.996 --     8 C    0.977
   137   1 H    0.997 --     8 C    0.983
   138   1 H    0.997 --     8 C    0.974
   139   1 H    0.993 --    10 C    0.954
   140   1 H    0.996 --    13 C    0.976
   141   1 H    0.996 --    13 C    0.972
   142   1 H    0.995 --    14 C    0.974
   143   1 H    0.997 --    14 C    0.978
   144   1 H    0.996 --    15 C    0.966
   145   1 H    0.996 --    15 C    0.969
   146   1 H    0.957 --    16 N    0.924
   147   1 H    0.994 --    17 C    0.949
   148   1 H    0.995 --    20 C    0.958
   149   1 H    0.995 --    20 C    0.970
   150   1 H    0.993 --    23 C    0.826   224 H    0.140
   151   1 H    0.948 --    26 N    0.895
   152   1 H    0.992 --    27 C    0.952
   153   1 H    0.996 --    30 C    0.972
   154   1 H    0.996 --    30 C    0.971
   155   1 H    0.998 --    31 C    0.979
   156   1 H    0.997 --    31 C    0.977
   157   1 H    0.992 --    32 C    0.965
   158   1 H    0.995 --    32 C    0.972
   159   1 H    0.985 --    33 C    0.964
   160   1 H    0.985 --    33 C    0.967
   161   1 H    0.953 --    35 N    0.925
   162   1 H    0.991 --    36 C    0.946
   163   1 H    0.993 --    37 C    0.950
   164   1 H    0.995 --    39 C    0.973
   165   1 H    0.994 --    39 C    0.958
   166   1 H    0.996 --    40 C    0.971
   167   1 H    0.996 --    40 C    0.972
   168   1 H    0.995 --    42 C    0.978
   169   1 H    0.997 --    42 C    0.982
   170   1 H    0.996 --    42 C    0.982
   171   1 H    0.977 --    43 N    0.961
   172   1 H    0.974 --    43 N    0.956
   173   1 H    0.996 --    44 C    0.943
   174   1 H    0.996 --    45 C    0.952
   175   1 H    0.998 --    47 C    0.974
   176   1 H    0.998 --    47 C    0.969
   177   1 H    0.999 --    48 C    0.971
   178   1 H    0.998 --    49 C    0.985
   179   1 H    0.999 --    49 C    0.986
   180   1 H    0.997 --    49 C    0.980
   181   1 H    0.998 --    50 C    0.987
   182   1 H    0.998 --    50 C    0.978
   183   1 H    0.998 --    50 C    0.983
   184   1 H    0.976 --    51 N    0.952
   185   1 H    0.974 --    51 N    0.958
   186   1 H    0.997 --    52 C    0.964
   187   1 H    0.995 --    53 C    0.953
   188   1 H    0.998 --    55 C    0.970
   189   1 H    0.998 --    56 C    0.988
   190   1 H    0.999 --    56 C    0.982
   191   1 H    0.997 --    56 C    0.986
   192   1 H    0.998 --    57 C    0.980
   193   1 H    0.997 --    57 C    0.983
   194   1 H    0.998 --    57 C    0.979
   195   1 H    0.972 --    58 N    0.945
   196   1 H    0.973 --    58 N    0.957
   197   1 H    0.998 --    59 C    0.965
   198   1 H    0.996 --    60 C    0.952
   199   1 H    0.998 --    62 C    0.971
   200   1 H    0.998 --    63 C    0.984
   201   1 H    0.999 --    63 C    0.986
   202   1 H    0.997 --    63 C    0.984
   203   1 H    0.998 --    64 C    0.981
   204   1 H    0.997 --    64 C    0.978
   205   1 H    0.998 --    64 C    0.976
   206   1 H    0.977 --    65 N    0.959
   207   1 H    0.968 --    65 N    0.926
   208   1 H    0.998 --    66 C    0.965
   209   1 H    0.998 --    69 C    0.975
   210   1 H    0.998 --    69 C    0.978
   211   1 H    0.998 --    70 C    0.964
   212   1 H    0.998 --    70 C    0.966
   213   1 H    0.956 --    74 N    0.924
   214   1 H    0.996 --    75 C    0.949
   215   1 H    0.995 --    78 C    0.970
   216   1 H    0.996 --    78 C    0.973
   217   1 H    0.999 --    79 C    0.970
   218   1 H    0.997 --    80 C    0.981
   219   1 H    0.998 --    80 C    0.985
   220   1 H    0.997 --    80 C    0.985
   221   1 H    0.998 --    81 C    0.984
   222   1 H    0.998 --    81 C    0.986
   223   1 H    0.999 --    81 C    0.985
   224   1 H    0.939 --    82 N    0.755   150 H    0.140
   225   1 H    0.992 --    83 C    0.937
   226   1 H    0.990 --    84 C    0.880
   227   1 H    0.996 --    86 C    0.964
   228   1 H    0.995 --    86 C    0.966
   229   1 H    0.977 --    90 N    0.964
   230   1 H    0.976 --    90 N    0.958
   231   1 H    0.999 --    91 C    0.951
   232   1 H    0.997 --    92 C    0.950
   233   1 H    0.997 --    94 C    0.969
   234   1 H    0.995 --    94 C    0.970
   235   1 H    0.998 --    96 C    0.972
   236   1 H    0.996 --    97 C    0.962
   237   1 H    0.998 --    98 C    0.970
   238   1 H    0.996 --    99 C    0.961
   239   1 H    0.886 --   101 O    0.865
   240   1 H    1.000 --   102 H    0.998
   241   1 H    1.000 --   103 H    0.985
   242   1 H    1.000 --   104 H    0.992
   243   1 H    1.000 --   105 H    0.967
   244   1 H    1.000 --   106 H    0.964
   245   1 H    0.999 --   107 H    0.883
   246   1 H    0.999 --   108 H    0.952
   247   1 H    0.999 --   109 H    0.923
   248   1 H    1.000 --   110 H    0.919
   249   1 H    1.000 --   111 H    0.942
   250   1 H    1.000 --   112 H    0.964
   251   1 H    1.000 --   113 H    0.918
   252   1 H    1.000 --   114 H    0.990
   253   1 H    0.999 --   115 H    0.965
   254   1 H    0.999 --   116 H    0.907
   255   1 H    0.999 --   117 H    0.926
   256   1 H    1.000 --   118 H    0.983
   257   1 H    1.000 --   119 H    0.990
   258   1 H    1.000 --   120 H    0.983
   259   1 H    1.000 --   121 H    0.970
   260   1 H    1.000 --   122 H    0.963
   261   1 H    1.000 --   123 H    0.969
   262   1 H    1.000 --   124 H    0.921
   263   1 H    1.000 --   125 H    0.931
   264   1 H    1.000 --   126 H    0.965
   265   1 H    1.000 --   127 H    0.969
   266   1 H    1.000 --   128 H    0.969
   267   1 H    0.911 --    34 N    0.897
   268   1 H    0.907 --    34 N    0.895
   269   1 H    0.911 --    34 N    0.894
   270   1 H    0.971 --    22 N    0.931
 ---------------------------------------------------------------------------

Topologies differ in total number of bonds
Writing topology from bond orders to xtbtopo.mol

molecular dipole:
                 x           y           z       tot (Debye)
 q only:       -9.926      61.781      55.689
   full:       -9.812      62.397      54.801     212.550
molecular quadrupole (traceless):
                xx          xy          yy          xz          yz          zz
 q only:     3567.322     956.108   -2397.402     835.728   -5214.492   -1169.920
  q+dip:     3578.203     936.062   -2503.449     815.681   -5181.288   -1074.754
   full:     3567.401     935.621   -2502.395     814.251   -5179.561   -1065.005


           -------------------------------------------------
          | TOTAL ENERGY             -346.907334672215 Eh   |
          | GRADIENT NORM               1.494415015059 Eh/α |
          | HOMO-LUMO GAP               0.733178826483 eV   |
           -------------------------------------------------
########################################################################
[WARNING] Runtime exception occurred
-3- restart_readRestart: Dimension missmatch in restart file.
-2- restart_readRestart: Multiplicity missmatch in restart file.
-1- restart_readRestart: Number of electron missmatch in restart file.
########################################################################

------------------------------------------------------------------------
 * finished run on 2025/05/05 at 16:40:28.179     
------------------------------------------------------------------------
 total:
 * wall-time:     0 d,  0 h,  0 min,  1.435 sec
 *  cpu-time:     0 d,  0 h,  0 min, 44.232 sec
 * ratio c/w:    30.825 speedup
 SCF:
 * wall-time:     0 d,  0 h,  0 min,  1.407 sec
 *  cpu-time:     0 d,  0 h,  0 min, 43.490 sec
 * ratio c/w:    30.905 speedup

