      -----------------------------------------------------------      
     |                   =====================                   |     
     |                           x T B                           |     
     |                   =====================                   |     
     |                         S. Grimme                         |     
     |          Mulliken Center for Theoretical Chemistry        |     
     |                    University of Bonn                     |     
      -----------------------------------------------------------      

   * xtb version 6.7.1 (edcfbbe) compiled by 'conda@afd1a870197c' on 2025-04-11

   xtb is free software: you can redistribute it and/or modify it under
   the terms of the GNU Lesser General Public License as published by
   the Free Software Foundation, either version 3 of the License, or
   (at your option) any later version.
   
   xtb is distributed in the hope that it will be useful,
   but WITHOUT ANY WARRANTY; without even the implied warranty of
   MERCHANTABILITY or FITNESS FOR A PARTICULAR PURPOSE.  See the
   GNU Lesser General Public License for more details.
   
   Cite this work as:
   * C. Bannwarth, E. Caldeweyher, S. Ehlert, A. Hansen, P. Pracht,
     J. Seibert, S. Spicher, S. Grimme, WIREs Comput. Mol. Sci., 2020, 11,
     e01493. DOI: 10.1002/wcms.1493
   
   for GFN2-xTB:
   * C. Bannwarth, S. Ehlert and S. Grimme., J. Chem. Theory Comput., 2019,
     15, 1652-1671. DOI: 10.1021/acs.jctc.8b01176
   for GFN1-xTB:
   * S. Grimme, C. Bannwarth, P. Shushkov, J. Chem. Theory Comput., 2017,
     13, 1989-2009. DOI: 10.1021/acs.jctc.7b00118
   for GFN0-xTB:
   * P. Pracht, E. Caldeweyher, S. Ehlert, S. Grimme, ChemRxiv, 2019, preprint.
     DOI: 10.26434/chemrxiv.8326202.v1
   for GFN-FF:
   * S. Spicher and S. Grimme, Angew. Chem. Int. Ed., 2020, 59, 15665-15673.
     DOI: 10.1002/anie.202004239
   
   for ALPB and GBSA implicit solvation:
   * S. Ehlert, M. Stahn, S. Spicher, S. Grimme, J. Chem. Theory Comput.,
     2021, 17, 4250-4261. DOI: 10.1021/acs.jctc.1c00471
   
   for ddCOSMO and CPCM-X implicit solvation:
   * M. Stahn, S. Ehlert, S. Grimme, J. Phys. Chem. A,
     2023, XX, XXXX-XXXX. DOI: 10.1021/acs.jpca.3c04382
   
   for DFT-D4:
   * E. Caldeweyher, C. Bannwarth and S. Grimme, J. Chem. Phys., 2017,
     147, 034112. DOI: 10.1063/1.4993215
   * E. Caldeweyher, S. Ehlert, A. Hansen, H. Neugebauer, S. Spicher,
     C. Bannwarth and S. Grimme, J. Chem. Phys., 2019, 150, 154122.
     DOI: 10.1063/1.5090222
   * E. Caldeweyher, J.-M. Mewes, S. Ehlert and S. Grimme, Phys. Chem. Chem. Phys.
     2020, 22, 8499-8512. DOI: 10.1039/D0CP00502A
   
   for sTDA-xTB:
   * S. Grimme and C. Bannwarth, J. Chem. Phys., 2016, 145, 054103.
     DOI: 10.1063/1.4959605
   
   in the mass-spec context:
   * V. Asgeirsson, C. Bauer and S. Grimme, Chem. Sci., 2017, 8, 4879.
     DOI: 10.1039/c7sc00601b
   * J. Koopman and S. Grimme, ACS Omega 2019, 4, 12, 15120-15133.
     DOI: 10.1021/acsomega.9b02011
   
   for metadynamics refer to:
   * S. Grimme, J. Chem. Theory Comput., 2019, 155, 2847-2862
     DOI: 10.1021/acs.jctc.9b00143
   
   for SPH calculations refer to:
   * S. Spicher and S. Grimme, J. Chem. Theory Comput., 2021, 17, 1701-1714
     DOI: 10.1021/acs.jctc.0c01306
   
   for ONIOM refer to:
   * C. Plett, A. Katbashev, S. Ehlert, S. Grimme, M. Bursch,
     Phys. Chem. Chem. Phys., 2023, 25, 17860-17868. DOI: 10.1039/D3CP02178E
   
   for DIPRO refer to:
   * J. Kohn, N. Gildemeister, S. Grimme, D. Fazzi, A. Hansen,
     J. Chem. Phys., 2023, just accepted.
   
   for PTB refer to:
   * S. Grimme, M. Mueller, A. Hansen, J. Chem. Phys., 2023, 158, 124111.
     DOI: 10.1063/5.0137838
   
   with help from (in alphabetical order)
   P. Atkinson, C. Bannwarth, F. Bohle, G. Brandenburg, E. Caldeweyher
   M. Checinski, S. Dohm, S. Ehlert, S. Ehrlich, I. Gerasimov, C. Hölzer
   A. Katbashev, J. Kohn, J. Koopman, C. Lavigne, S. Lehtola, F. März, M. Müller,
   F. Musil, H. Neugebauer, J. Pisarek, C. Plett, P. Pracht, F. Pultar,
   J. Seibert, P. Shushkov, S. Spicher, M. Stahn, M. Steiner, T. Strunk,
   J. Stückrath, T. Rose, and J. Unsleber
   
 * started run on 2025/05/05 at 17:14:26.226     
   ID    Z sym.   atoms
    1    7 N      1, 9, 10, 18, 26, 33, 34, 40, 43, 44, 50, 58, 64, 72, 73,
                  81, 88, 90-92, 99, 106, 108, 109
    2    6 C      2, 3, 5-7, 11, 12, 14-17, 19, 20, 22, 23, 25, 27, 28, 30,
                  31, 35, 36, 38, 39, 41, 42, 45, 46, 48, 51, 52, 54-57,
                  59-63, 65, 66, 68-71, 74, 75, 77, 78, 82, 83, 85-87, 89,
                  93, 94, 96-98, 100, 101, 103-105, 107
    3    8 O      4, 8, 13, 21, 29, 32, 37, 47, 53, 67, 76, 79, 80, 84, 95,
                  102
    4   16 S      24, 49
    5    1 H      110-253

           -------------------------------------------------
          |                Calculation Setup                |
           -------------------------------------------------

          program call               : xtb /tmp/tmpu7_ob99n/HID/input.xyz --alpb ether --chrg 5 --input /tmp/tmpu7_ob99n/HID/constraints.inp --gfn 2
          hostname                   : fedora
          coordinate file            : /tmp/tmpu7_ob99n/HID/input.xyz
          omp threads                :                    32


molecular fragmentation (1/2 indicates fragments):
111111111111111111111111111111111111111111111111111111111111111111111111
222222222222222222222222222222222222222222222222222222111111111111111111
111111111111111111111111111111111111111111111112222222222222222222222222
2222222222222222222222222222222111221
# atoms in fragment 1/2:   141   112
 fragment masses (1/2) :     1042.26      563.88
CMA distance (Bohr)    :  15.283
constraining FC (au)   :  0.0500

           -------------------------------------------------
          |                 G F N 2 - x T B                 |
           -------------------------------------------------

        Reference                      10.1021/acs.jctc.8b01176
      * Hamiltonian:
        H0-scaling (s, p, d)           1.850000    2.230000    2.230000
        zeta-weighting                 0.500000
      * Dispersion:
        s8                             2.700000
        a1                             0.520000
        a2                             5.000000
        s9                             5.000000
      * Repulsion:
        kExp                           1.500000    1.000000
        rExp                           1.000000
      * Coulomb:
        alpha                          2.000000
        third order                    shell-resolved
        anisotropic                    true
        a3                             3.000000
        a5                             4.000000
        cn-shift                       1.200000
        cn-exp                         4.000000
        max-rad                        5.000000

      * Solvation model:               ALPB
        Solvent                        ether
        Parameter file                 internal GFN2-xTB/ALPB
        Dielectric constant                4.3300E+00
        Reference state                gsolv [1 M gas/solution]
        Free energy shift                  4.9534E-03 Eh       3.1083E+00 kcal/mol
        Temperature                        2.9815E+02 K
        Density                            7.1300E-01 kg/L
        Solvent mass                       7.4120E+01 g/mol
        Interaction kernel             P16
        Born radius scaling (c1)           1.5847E+00
        Born radii integrator          GBOBC
        Born offset                        0.0000E+00 a0       0.0000E+00 AA
        H-bond correction              true
        Ion screening                  false
        Surface tension                    1.0000E-05 Eh       1.5569E+01 dyn/cm
        Grid points                               230 per atom

          ...................................................
          :                      SETUP                      :
          :.................................................:
          :  # basis functions                 592          :
          :  # atomic orbitals                 590          :
          :  # shells                          364          :
          :  # electrons                       635          :
          :  max. iterations                   250          :
          :  Hamiltonian                  GFN2-xTB          :
          :  restarted?                      false          :
          :  GBSA solvation                   true          :
          :  PC potential                    false          :
          :  electronic temp.          300.0000000     K    :
          :  accuracy                    1.0000000          :
          :  -> integral cutoff          0.2500000E+02      :
          :  -> integral neglect         0.1000000E-07      :
          :  -> SCF convergence          0.1000000E-05 Eh   :
          :  -> wf. convergence          0.1000000E-03 e    :
          :  Broyden damping             0.4000000          :
          :  net charge                          5          :
          :  unpaired electrons                  0          :
          ...................................................

 iter      E             dE          RMSdq      gap      omega  full diag
   1   -358.3847570 -0.358385E+03  0.463E+00    0.01       0.0  T
   2   -358.4404060 -0.556490E-01  0.354E+00    0.39       1.0  T
   3   -359.7603564 -0.131995E+01  0.264E+00    0.30       1.0  T
   4   -360.2626392 -0.502283E+00  0.220E+00    0.15       1.0  T
   5   -359.9618228  0.300816E+00  0.189E+00    0.09       1.0  T
   6   -359.7802079  0.181615E+00  0.183E+00    0.20       1.0  T
   7   -360.3521736 -0.571966E+00  0.188E+00    0.04       1.0  T
   8   -360.7922520 -0.440078E+00  0.118E+00    0.04       1.0  T
   9   -361.0467133 -0.254461E+00  0.128E+00    0.16       1.0  T
  10   -361.1688349 -0.122122E+00  0.889E-01    0.24       1.0  T
  11   -361.2197114 -0.508765E-01  0.745E-01    0.15       1.0  T
  12   -360.9584273  0.261284E+00  0.187E+00    0.06       1.0  T
  13   -360.9640990 -0.567165E-02  0.102E+00    0.05       1.0  T
  14   -361.1624816 -0.198383E+00  0.738E-01    0.13       1.0  T
  15   -361.1877551 -0.252736E-01  0.695E-01    0.13       1.0  T
  16   -361.2828171 -0.950619E-01  0.524E-01    0.09       1.0  T
  17   -361.2454750  0.373421E-01  0.574E-01    0.05       1.0  T
  18   -361.3070250 -0.615500E-01  0.406E-01    0.05       1.0  T
  19   -361.3126399 -0.561489E-02  0.377E-01    0.01       1.0  T
  20   -361.3331898 -0.205499E-01  0.254E-01    0.03       1.0  T
  21   -361.3346965 -0.150665E-02  0.227E-01    0.02       1.0  T
  22   -361.3389491 -0.425263E-02  0.198E-01    0.01       1.0  T
  23   -361.3385420  0.407084E-03  0.200E-01    0.01       1.0  T
  24   -361.3342613  0.428074E-02  0.221E-01    0.00       1.0  T
  25   -361.3429445 -0.868322E-02  0.165E-01    0.02       1.0  T
  26   -361.3386237  0.432076E-02  0.322E-01    0.03       1.0  T
  27   -361.3285187  0.101051E-01  0.277E-01    0.00       1.0  T
  28   -361.3445033 -0.159846E-01  0.231E-01    0.04       1.0  T
  29   -361.3505441 -0.604081E-02  0.773E-02    0.03       1.0  T
  30   -361.3509761 -0.431987E-03  0.609E-02    0.03       1.0  T
  31   -361.3517614 -0.785349E-03  0.430E-02    0.02       1.0  T
  32   -361.3524661 -0.704632E-03  0.136E-02    0.02       1.0  T
  33   -361.3524977 -0.316432E-04  0.917E-03    0.02       1.0  T
  34   -361.3525259 -0.282162E-04  0.267E-03    0.02       2.4  T
  35   -361.3525119  0.140095E-04  0.653E-03    0.02       1.0  T
  36   -361.3525249 -0.130053E-04  0.390E-03    0.02       1.6  T
  37   -361.3525278 -0.288969E-05  0.214E-03    0.02       2.9  T
  38   -361.3525277  0.100064E-06  0.157E-03    0.02       4.0  T
  39   -361.3525284 -0.723830E-06  0.317E-04    0.02      19.9  T
  40   -361.3525285 -0.383631E-07  0.205E-04    0.02      30.7  T

   *** convergence criteria satisfied after 40 iterations ***

         #    Occupation            Energy/Eh            Energy/eV
      -------------------------------------------------------------
         1        2.0000           -0.8228968             -22.3922
       ...           ...                  ...                  ...
       312        1.9039           -0.4675632             -12.7230
       313        1.8941           -0.4674645             -12.7204
       314        1.8599           -0.4671787             -12.7126
       315        1.8256           -0.4669501             -12.7064
       316        1.7215           -0.4664411             -12.6925
       317        1.6040           -0.4660297             -12.6813
       318        1.1145           -0.4648763             -12.6499 (HOMO)
       319        0.7441           -0.4641275             -12.6296 (LUMO)
       320        0.4039           -0.4632896             -12.6068
       321                         -0.3656932              -9.9510
       322                         -0.3642530              -9.9118
       323                         -0.3639491              -9.9036
       ...                                ...                  ...
       590                          1.1340544              30.8592
      -------------------------------------------------------------
                  HL-Gap            0.0007488 Eh            0.0204 eV
             Fermi-level           -0.4646476 Eh          -12.6437 eV

 SCC (total)                   0 d,  0 h,  0 min,  1.591 sec
 SCC setup                      ...        0 min,  0.004 sec (  0.251%)
 Dispersion                     ...        0 min,  0.011 sec (  0.674%)
 classical contributions        ...        0 min,  0.001 sec (  0.037%)
 integral evaluation            ...        0 min,  0.024 sec (  1.493%)
 iterations                     ...        0 min,  1.473 sec ( 92.556%)
 molecular gradient             ...        0 min,  0.072 sec (  4.514%)
 printout                       ...        0 min,  0.008 sec (  0.473%)

         :::::::::::::::::::::::::::::::::::::::::::::::::::::
         ::                     SUMMARY                     ::
         :::::::::::::::::::::::::::::::::::::::::::::::::::::
         :: total energy            -355.320082644330 Eh    ::
         :: total w/o Gsasa/hb      -355.195177541013 Eh    ::
         :: gradient norm              1.216226930869 Eh/a0 ::
         :: HOMO-LUMO gap              0.020375452059 eV    ::
         ::.................................................::
         :: SCC energy              -361.327992855264 Eh    ::
         :: -> isotropic ES            1.613838145437 Eh    ::
         :: -> anisotropic ES          0.005150109158 Eh    ::
         :: -> anisotropic XC          0.229020377228 Eh    ::
         :: -> dispersion             -0.282656682348 Eh    ::
         :: -> Gsolv                  -0.871224176029 Eh    ::
         ::    -> Gelec               -0.746319072712 Eh    ::
         ::    -> Gsasa               -0.093012079607 Eh    ::
         ::    -> Ghb                 -0.036846461288 Eh    ::
         ::    -> Gshift               0.004953437577 Eh    ::
         :: repulsion energy           6.007910210934 Eh    ::
         :: add. restraining           0.000000000000 Eh    ::
         :: total charge               5.000000000304 e     ::
         :::::::::::::::::::::::::::::::::::::::::::::::::::::

           -------------------------------------------------
          |                Property Printout                |
           -------------------------------------------------

    * Orbital Energies and Occupations

         #    Occupation            Energy/Eh            Energy/eV
      -------------------------------------------------------------
         1        2.0000           -0.8228968             -22.3922
       ...           ...                  ...                  ...
       306        2.0000           -0.4790388             -13.0353
       307        2.0000           -0.4758662             -12.9490
       308        2.0000           -0.4752659             -12.9326
       309        1.9911           -0.4698695             -12.7858
       310        1.9720           -0.4687739             -12.7560
       311        1.9655           -0.4685710             -12.7505
       312        1.9039           -0.4675632             -12.7230
       313        1.8941           -0.4674645             -12.7204
       314        1.8599           -0.4671787             -12.7126
       315        1.8256           -0.4669501             -12.7064
       316        1.7215           -0.4664411             -12.6925
       317        1.6040           -0.4660297             -12.6813
       318        1.1145           -0.4648763             -12.6499 (HOMO)
       319        0.7441           -0.4641275             -12.6296 (LUMO)
       320        0.4039           -0.4632896             -12.6068
       321                         -0.3656932              -9.9510
       322                         -0.3642530              -9.9118
       323                         -0.3639491              -9.9036
       324                         -0.3411183              -9.2823
       325                         -0.3313398              -9.0162
       326                         -0.3247162              -8.8360
       327                         -0.3207894              -8.7291
       328                         -0.3191421              -8.6843
       329                         -0.3145209              -8.5585
       ...                                ...                  ...
       590                          1.1340544              30.8592
      -------------------------------------------------------------
                  HL-Gap            0.0007488 Eh            0.0204 eV
             Fermi-level           -0.4646476 Eh          -12.6437 eV

     #   Z          covCN         q      C6AA      α(0)
     1   7 N        2.629    -0.362    29.325     8.043
     2   6 C        3.784     0.025    20.176     6.398
     3   6 C        2.756     0.255    22.718     7.805
     4   8 O        0.859    -0.509    23.973     6.565
     5   6 C        3.806    -0.069    21.816     6.649
     6   6 C        3.811    -0.103    22.454     6.745
     7   6 C        2.741     0.285    22.177     7.711
     8   8 O        0.859    -0.469    23.098     6.444
     9   7 N        2.642    -0.275    27.121     7.734
    10   7 N        2.686    -0.167    24.616     7.369
    11   6 C        3.811     0.015    20.307     6.414
    12   6 C        2.759     0.265    22.527     7.773
    13   8 O        0.857    -0.486    23.466     6.495
    14   6 C        3.861    -0.029    21.051     6.525
    15   6 C        3.817    -0.073    21.885     6.658
    16   6 C        3.762    -0.130    23.046     6.843
    17   6 C        3.760    -0.124    22.919     6.825
    18   7 N        2.687    -0.172    24.731     7.386
    19   6 C        3.805     0.020    20.243     6.405
    20   6 C        2.761     0.276    22.328     7.738
    21   8 O        0.860    -0.489    23.540     6.505
    22   6 C        3.849    -0.090    22.181     6.699
    23   6 C        3.796    -0.060    21.659     6.627
    24  16 S        1.980     0.051   138.985    19.842
    25   6 C        3.752    -0.106    22.578     6.776
    26   7 N        2.688    -0.171    24.708     7.382
    27   6 C        3.807     0.030    20.065     6.377
    28   6 C        2.759     0.264    22.539     7.775
    29   8 O        0.858    -0.489    23.544     6.506
    30   6 C        3.820    -0.109    22.557     6.759
    31   6 C        2.743     0.281    22.250     7.723
    32   8 O        0.860    -0.489    23.547     6.506
    33   7 N        2.641    -0.270    26.988     7.715
    34   7 N        2.686    -0.166    24.589     7.365
    35   6 C        3.798     0.014    20.340     6.422
    36   6 C        2.751     0.258    22.664     7.795
    37   8 O        0.858    -0.490    23.574     6.510
    38   6 C        3.813    -0.096    22.316     6.724
    39   6 C        3.086     0.034    27.149     8.541
    40   7 N        2.833    -0.046    22.131     6.987
    41   6 C        3.047    -0.000    27.990     8.677
    42   6 C        2.103     0.072    29.063     8.711
    43   7 N        1.970    -0.200    26.147     7.583
    44   7 N        2.685    -0.155    24.344     7.328
    45   6 C        3.814     0.012    20.360     6.422
    46   6 C        2.753     0.277    22.322     7.737
    47   8 O        0.861    -0.438    22.447     6.352
    48   6 C        3.804    -0.033    21.161     6.549
    49  16 S        1.912    -0.156   147.616    20.449
    50   7 N        2.688    -0.168    24.646     7.373
    51   6 C        3.788     0.023    20.202     6.401
    52   6 C        2.752     0.260    22.615     7.787
    53   8 O        0.857    -0.477    23.279     6.469
    54   6 C        3.815    -0.081    22.039     6.682
    55   6 C        3.031     0.062    26.592     8.458
    56   6 C        2.993     0.030    27.317     8.574
    57   6 C        3.073    -0.008    28.131     8.696
    58   7 N        1.904    -0.184    25.791     7.529
    59   6 C        3.044     0.077    26.237     8.401
    60   6 C        2.904    -0.006    28.176     8.704
    61   6 C        2.903    -0.012    28.313     8.725
    62   6 C        2.908    -0.031    28.782     8.797
    63   6 C        2.913    -0.024    28.597     8.769
    64   7 N        2.687    -0.125    23.727     7.234
    65   6 C        3.794     0.021    20.233     6.405
    66   6 C        2.769     0.206    23.634     7.962
    67   8 O        0.856    -0.353    20.762     6.109
    68   6 C        3.806    -0.086    22.135     6.698
    69   6 C        3.802    -0.089    22.186     6.706
    70   6 C        3.802    -0.103    22.461     6.747
    71   6 C        3.733    -0.054    21.643     6.640
    72   7 N        3.486    -0.175    24.782     7.394
    73   7 N        2.626    -0.324    28.340     7.906
    74   6 C        3.786     0.025    20.171     6.397
    75   6 C        2.760     0.271    22.414     7.753
    76   8 O        0.859    -0.449    22.682     6.385
    77   6 C        3.810    -0.075    21.927     6.665
    78   6 C        2.687     0.394    20.346     7.382
    79   8 O        0.857    -0.450    22.704     6.388
    80   8 O        0.856    -0.443    22.550     6.367
    81   7 N        2.698    -0.134    23.905     7.261
    82   6 C        3.807     0.011    20.390     6.428
    83   6 C        2.787     0.268    22.478     7.766
    84   8 O        0.861    -0.477    23.284     6.470
    85   6 C        3.821    -0.079    21.989     6.673
    86   6 C        3.814    -0.092    22.247     6.713
    87   6 C        3.741    -0.034    21.250     6.577
    88   7 N        2.704    -0.145    24.137     7.297
    89   6 C        2.734     0.232    23.128     7.874
    90   7 N        2.652    -0.261    26.769     7.684
    91   7 N        2.660    -0.264    26.847     7.695
    92   7 N        2.775    -0.052    22.253     7.006
    93   6 C        3.837     0.024    20.140     6.384
    94   6 C        2.763     0.188    23.969     8.018
    95   8 O        0.856    -0.361    20.917     6.132
    96   6 C        3.854    -0.076    21.907     6.657
    97   6 C        3.845    -0.079    21.970     6.667
    98   6 C        3.777    -0.028    21.095     6.544
    99   7 N        2.630    -0.298    27.679     7.814
   100   6 C        3.782     0.025    20.171     6.398
   101   6 C        2.764     0.188    23.972     8.018
   102   8 O        0.856    -0.351    20.735     6.105
   103   6 C        3.805    -0.084    22.103     6.693
   104   6 C        3.812    -0.092    22.250     6.714
   105   6 C        3.739    -0.034    21.259     6.579
   106   7 N        2.700    -0.137    23.965     7.271
   107   6 C        2.734     0.228    23.211     7.888
   108   7 N        2.646    -0.259    26.714     7.676
   109   7 N        2.652    -0.256    26.640     7.666
   110   1 H        0.980    -0.002     3.088     2.746
   111   1 H        0.980    -0.004     3.125     2.762
   112   1 H        0.980     0.004     2.982     2.698
   113   1 H        0.980     0.038     2.464     2.453
   114   1 H        0.980    -0.004     3.125     2.762
   115   1 H        0.980    -0.005     3.131     2.765
   116   1 H        0.980     0.037     2.488     2.465
   117   1 H        0.980    -0.013     3.286     2.832
   118   1 H        0.980    -0.014     3.306     2.841
   119   1 H        0.980     0.018     2.760     2.596
   120   1 H        0.980     0.003     3.002     2.707
   121   1 H        0.980     0.005     2.959     2.688
   122   1 H        0.980    -0.020     3.423     2.891
   123   1 H        0.980    -0.012     3.272     2.827
   124   1 H        0.980     0.002     3.013     2.712
   125   1 H        0.980     0.024     2.667     2.552
   126   1 H        0.980    -0.040     3.833     3.059
   127   1 H        0.860     0.154     1.377     1.838
   128   1 H        0.860     0.177     1.230     1.737
   129   1 H        0.927     0.043     2.406     2.426
   130   1 H        0.927     0.060     2.193     2.316
   131   1 H        0.927     0.075     2.033     2.230
   132   1 H        0.927     0.074     2.037     2.232
   133   1 H        0.927     0.086     1.917     2.165
   134   1 H        0.861     0.236     0.941     1.520
   135   1 H        0.861     0.244     0.907     1.492
   136   1 H        0.861     0.224     0.990     1.559
   137   1 H        0.927     0.094     1.842     2.123
   138   1 H        0.927     0.051     2.310     2.377
   139   1 H        0.927     0.046     2.371     2.408
   140   1 H        0.927     0.051     2.313     2.378
   141   1 H        0.926     0.059     2.215     2.328
   142   1 H        0.927     0.048     2.341     2.393
   143   1 H        0.927     0.062     2.179     2.308
   144   1 H        0.926     0.041     2.435     2.440
   145   1 H        0.927     0.045     2.380     2.412
   146   1 H        0.927     0.046     2.368     2.406
   147   1 H        0.861     0.216     1.027     1.587
   148   1 H        0.926     0.097     1.815     2.107
   149   1 H        0.927     0.085     1.930     2.172
   150   1 H        0.927     0.081     1.972     2.196
   151   1 H        0.927     0.091     1.869     2.138
   152   1 H        0.927     0.099     1.796     2.095
   153   1 H        0.927     0.096     1.822     2.111
   154   1 H        0.927     0.100     1.784     2.089
   155   1 H        0.927     0.099     1.795     2.095
   156   1 H        0.861     0.204     1.085     1.631
   157   1 H        0.927     0.098     1.802     2.099
   158   1 H        0.927     0.104     1.750     2.069
   159   1 H        0.927     0.075     2.031     2.228
   160   1 H        0.861     0.217     1.023     1.584
   161   1 H        0.861     0.240     0.921     1.503
   162   1 H        0.861     0.229     0.968     1.541
   163   1 H        0.927     0.109     1.709     2.044
   164   1 H        0.927     0.104     1.747     2.067
   165   1 H        0.927     0.108     1.711     2.046
   166   1 H        0.929     0.094     1.839     2.120
   167   1 H        0.861     0.236     0.941     1.519
   168   1 H        0.927     0.104     1.752     2.070
   169   1 H        0.927     0.095     1.833     2.117
   170   1 H        0.927     0.103     1.758     2.074
   171   1 H        0.921     0.188     1.162     1.686
   172   1 H        0.861     0.218     1.020     1.582
   173   1 H        0.927     0.121     1.608     1.983
   174   1 H        0.927     0.169     1.271     1.763
   175   1 H        0.927     0.119     1.618     1.989
   176   1 H        0.929     0.091     1.867     2.137
   177   1 H        0.929     0.094     1.836     2.119
   178   1 H        0.929     0.103     1.762     2.076
   179   1 H        0.929     0.089     1.889     2.149
   180   1 H        0.929     0.093     1.846     2.124
   181   1 H        0.861     0.229     0.967     1.540
   182   1 H        0.927     0.105     1.739     2.062
   183   1 H        0.929     0.085     1.932     2.174
   184   1 H        0.927     0.073     2.052     2.240
   185   1 H        0.927     0.095     1.832     2.116
   186   1 H        0.926     0.076     2.018     2.221
   187   1 H        0.927     0.082     1.959     2.189
   188   1 H        0.926     0.076     2.024     2.224
   189   1 H        0.927     0.076     2.025     2.225
   190   1 H        0.927     0.121     1.607     1.983
   191   1 H        0.926     0.116     1.646     2.006
   192   1 H        0.860     0.197     1.119     1.657
   193   1 H        0.860     0.199     1.111     1.651
   194   1 H        0.927     0.109     1.705     2.042
   195   1 H        0.927     0.121     1.607     1.982
   196   1 H        0.927     0.114     1.661     2.015
   197   1 H        0.861     0.233     0.952     1.528
   198   1 H        0.926     0.110     1.698     2.038
   199   1 H        0.926     0.070     2.086     2.259
   200   1 H        0.927     0.070     2.082     2.256
   201   1 H        0.927     0.073     2.052     2.240
   202   1 H        0.927     0.080     1.983     2.202
   203   1 H        0.927     0.107     1.719     2.050
   204   1 H        0.927     0.073     2.058     2.243
   205   1 H        0.861     0.241     0.918     1.501
   206   1 H        0.861     0.247     0.895     1.482
   207   1 H        0.861     0.252     0.875     1.465
   208   1 H        0.861     0.248     0.893     1.480
   209   1 H        0.927     0.092     1.857     2.131
   210   1 H        0.929     0.091     1.868     2.137
   211   1 H        0.927     0.079     1.987     2.204
   212   1 H        0.926     0.071     2.075     2.252
   213   1 H        0.927     0.078     1.995     2.209
   214   1 H        0.927     0.071     2.079     2.255
   215   1 H        0.927     0.080     1.978     2.199
   216   1 H        0.927     0.085     1.932     2.174
   217   1 H        0.860     0.199     1.109     1.649
   218   1 H        0.860     0.212     1.048     1.603
   219   1 H        0.927     0.106     1.735     2.060
   220   1 H        0.929     0.100     1.786     2.090
   221   1 H        0.927     0.090     1.879     2.143
   222   1 H        0.927     0.079     1.987     2.204
   223   1 H        0.927     0.076     2.016     2.221
   224   1 H        0.927     0.077     2.010     2.217
   225   1 H        0.926     0.090     1.881     2.145
   226   1 H        0.927     0.090     1.876     2.142
   227   1 H        0.861     0.247     0.893     1.481
   228   1 H        0.861     0.259     0.850     1.445
   229   1 H        0.861     0.241     0.918     1.501
   230   1 H        0.861     0.249     0.889     1.477
   231   1 H        0.980     0.002     3.015     2.713
   232   1 H        0.980     0.005     2.968     2.692
   233   1 H        0.980    -0.003     3.109     2.755
   234   1 H        0.980    -0.005     3.144     2.771
   235   1 H        0.980    -0.008     3.185     2.789
   236   1 H        0.980     0.008     2.918     2.669
   237   1 H        0.980    -0.017     3.368     2.868
   238   1 H        0.980     0.010     2.876     2.650
   239   1 H        0.980     0.000     3.048     2.728
   240   1 H        0.980    -0.016     3.344     2.858
   241   1 H        0.980    -0.002     3.079     2.742
   242   1 H        0.980    -0.007     3.166     2.780
   243   1 H        0.980     0.022     2.694     2.565
   244   1 H        0.980     0.011     2.860     2.643
   245   1 H        0.980    -0.000     3.053     2.730
   246   1 H        0.980    -0.021     3.429     2.894
   247   1 H        0.980     0.037     2.485     2.463
   248   1 H        0.860     0.301     0.709     1.319
   249   1 H        0.860     0.303     0.705     1.316
   250   1 H        0.860     0.305     0.697     1.308
   251   1 H        0.860     0.251     0.879     1.469
   252   1 H        0.860     0.232     0.958     1.533
   253   1 H        0.858     0.216     1.028     1.588

 Mol. C6AA /au·bohr⁶  :     543760.012635
 Mol. C8AA /au·bohr⁸  :   12101391.610750
 Mol. α(0) /au        :       1117.249269


Wiberg/Mayer (AO) data.
largest (>0.10) Wiberg bond orders for each atom

 ---------------------------------------------------------------------------
     #   Z sym  total        # sym  WBO       # sym  WBO       # sym  WBO
 ---------------------------------------------------------------------------
     1   7 N    2.975 --     2 C    1.011   127 H    0.961   128 H    0.946
     2   6 C    3.977 --     1 N    1.011     5 C    0.972   129 H    0.957
                             3 C    0.942
     3   6 C    3.948 --     4 O    1.590    10 N    1.342     2 C    0.942
     4   8 O    1.917 --     3 C    1.590    10 N    0.197
     5   6 C    3.987 --     6 C    1.007   130 H    0.976     2 C    0.972
                           131 H    0.972
     6   6 C    3.966 --     5 C    1.007   132 H    0.958   133 H    0.956
                             7 C    0.946
     7   6 C    3.934 --     8 O    1.622     9 N    1.340     6 C    0.946
     8   8 O    1.902 --     7 C    1.622     9 N    0.193
     9   7 N    3.410 --     7 C    1.340   134 H    0.926   135 H    0.919
                             8 O    0.193
    10   7 N    3.492 --     3 C    1.342    11 C    0.959   136 H    0.918
                             4 O    0.197
    11   6 C    3.956 --    14 C    0.969    10 N    0.959   137 H    0.951
                            12 C    0.945
    12   6 C    3.949 --    13 O    1.612    18 N    1.308    11 C    0.945
    13   8 O    1.941 --    12 C    1.612    18 N    0.192
    14   6 C    3.989 --    16 C    1.003    15 C    0.996    11 C    0.969
                           138 H    0.965
    15   6 C    3.996 --    17 C    1.020    14 C    0.996   140 H    0.975
                           139 H    0.972
    16   6 C    3.990 --    14 C    1.003   141 H    0.985   142 H    0.982
                           143 H    0.980
    17   6 C    3.993 --    15 C    1.020   144 H    0.987   146 H    0.983
                           145 H    0.982
    18   7 N    3.467 --    12 C    1.308    19 C    0.973   147 H    0.921
                            13 O    0.192
    19   6 C    3.963 --    22 C    0.985    18 N    0.973   148 H    0.948
                            20 C    0.939
    20   6 C    3.954 --    21 O    1.622    26 N    1.312    19 C    0.939
    21   8 O    1.943 --    20 C    1.622    26 N    0.196
    22   6 C    3.981 --    23 C    1.001    19 C    0.985   150 H    0.970
                           149 H    0.966
    23   6 C    3.957 --    22 C    1.001    24 S    0.990   151 H    0.967
                           152 H    0.959
    24  16 S    2.077 --    25 C    1.027    23 C    0.990
    25   6 C    3.941 --    24 S    1.027   153 H    0.971   155 H    0.962
                           154 H    0.962
    26   7 N    3.474 --    20 C    1.312    27 C    0.965   156 H    0.925
                            21 O    0.196
    27   6 C    3.960 --    30 C    0.979    26 N    0.965    28 C    0.946
                           157 H    0.935
    28   6 C    3.959 --    29 O    1.618    34 N    1.313    27 C    0.946
    29   8 O    1.937 --    28 C    1.618    34 N    0.201
    30   6 C    3.987 --    27 C    0.979   159 H    0.965   158 H    0.956
                            31 C    0.951
    31   6 C    3.948 --    32 O    1.647    33 N    1.326    30 C    0.951
    32   8 O    1.954 --    31 C    1.647    33 N    0.204
    33   7 N    3.416 --    31 C    1.326   160 H    0.932   161 H    0.920
                            32 O    0.204
    34   7 N    3.479 --    28 C    1.313    35 C    0.976   162 H    0.904
                            29 O    0.201
    35   6 C    3.958 --    34 N    0.976    38 C    0.971   163 H    0.941
                            36 C    0.931
    36   6 C    3.951 --    37 O    1.600    44 N    1.338    35 C    0.931
    37   8 O    1.928 --    36 C    1.600    44 N    0.200
    38   6 C    3.980 --    39 C    1.022    35 C    0.971   165 H    0.951
                           164 H    0.942
    39   6 C    3.901 --    41 C    1.556    40 N    1.148    38 C    1.022
                            42 C    0.113
    40   7 N    3.568 --    42 C    1.339    39 C    1.148   253 H    0.915
    41   6 C    3.891 --    39 C    1.556    43 N    1.211   166 H    0.964
    42   6 C    3.278 --    43 N    1.725    40 N    1.339    39 C    0.113
    43   7 N    3.098 --    42 C    1.725    41 C    1.211
    44   7 N    3.498 --    36 C    1.338    45 C    0.978   167 H    0.907
                            37 O    0.200
    45   6 C    3.954 --    48 C    0.980    44 N    0.978   168 H    0.946
                            46 C    0.922
    46   6 C    3.953 --    47 O    1.672    50 N    1.277    45 C    0.922
    47   8 O    2.010 --    46 C    1.672    50 N    0.197
    48   6 C    3.959 --    49 S    0.997    45 C    0.980   170 H    0.959
                           169 H    0.959
    49  16 S    1.995 --    48 C    0.997   171 H    0.916
    50   7 N    3.467 --    46 C    1.277    51 C    0.985   172 H    0.916
                            47 O    0.197
    51   6 C    3.947 --    50 N    0.985    54 C    0.972   173 H    0.932
                            52 C    0.917
    52   6 C    3.947 --    53 O    1.601    64 N    1.352    51 C    0.917
    53   8 O    1.936 --    52 C    1.601    64 N    0.196
    54   6 C    3.962 --    55 C    1.093    51 C    0.972   175 H    0.938
                           174 H    0.864
    55   6 C    3.763 --    56 C    1.281    57 C    1.140    54 C    1.093
    56   6 C    3.945 --    58 N    1.507    55 C    1.281   176 H    0.963
    57   6 C    3.963 --    60 C    1.398    59 C    1.235    55 C    1.140
    58   7 N    2.852 --    56 C    1.507    59 C    1.174
    59   6 C    3.959 --    61 C    1.376    57 C    1.235    58 N    1.174
    60   6 C    3.885 --    57 C    1.398    62 C    1.346   177 H    0.960
    61   6 C    3.892 --    59 C    1.376    63 C    1.368   178 H    0.961
    62   6 C    3.945 --    63 C    1.459    60 C    1.346   179 H    0.969
    63   6 C    3.930 --    62 C    1.459    61 C    1.368   180 H    0.966
    64   7 N    3.500 --    52 C    1.352    65 C    0.962   181 H    0.907
                            53 O    0.196
    65   6 C    3.958 --    66 C    0.989    64 N    0.962    68 C    0.961
                           182 H    0.939
    66   6 C    3.892 --    67 O    1.881    65 C    0.989   183 H    0.947
    67   8 O    2.070 --    66 C    1.881
    68   6 C    3.978 --    69 C    1.001   184 H    0.965   185 H    0.963
                            65 C    0.961
    69   6 C    3.987 --    70 C    1.003    68 C    1.001   186 H    0.971
                           187 H    0.968
    70   6 C    3.985 --    71 C    1.004    69 C    1.003   189 H    0.978
                           188 H    0.962
    71   6 C    3.904 --    70 C    1.004   190 H    0.968   191 H    0.966
                            72 N    0.946
    72   7 N    3.647 --    71 C    0.946   249 H    0.896   250 H    0.894
                           248 H    0.891
    73   7 N    3.007 --    74 C    1.019   192 H    0.944   193 H    0.936
    74   6 C    3.935 --    73 N    1.019    77 C    0.999   194 H    0.918
                            75 C    0.903
    75   6 C    3.934 --    76 O    1.621    81 N    1.331    74 C    0.903
    76   8 O    1.942 --    75 C    1.621    81 N    0.192
    77   6 C    3.803 --    74 C    0.999   196 H    0.952   195 H    0.942
                            78 C    0.801
    78   6 C    3.893 --    79 O    1.548    80 O    1.520    77 C    0.801
    79   8 O    1.879 --    78 C    1.548    80 O    0.256
    80   8 O    1.848 --    78 C    1.520    79 O    0.256
    81   7 N    3.487 --    75 C    1.331    82 C    0.980   197 H    0.908
                            76 O    0.192
    82   6 C    3.938 --    81 N    0.980    85 C    0.973   198 H    0.941
                            83 C    0.922
    83   6 C    3.944 --    84 O    1.633    92 N    1.291    82 C    0.922
    84   8 O    1.942 --    83 C    1.633    92 N    0.187
    85   6 C    3.981 --    86 C    1.003    82 C    0.973   200 H    0.971
                           199 H    0.966
    86   6 C    3.984 --    85 C    1.003    87 C    0.996   201 H    0.971
                           202 H    0.970
    87   6 C    3.946 --    86 C    0.996    88 N    0.982   204 H    0.963
                           203 H    0.948
    88   7 N    3.455 --    89 C    1.324    87 C    0.982   251 H    0.880
                            91 N    0.102
    89   6 C    3.976 --    88 N    1.324    91 N    1.316    90 N    1.307
    90   7 N    3.384 --    89 C    1.307   206 H    0.920   205 H    0.917
    91   7 N    3.389 --    89 C    1.316   208 H    0.920   207 H    0.914
                            88 N    0.102
    92   7 N    3.511 --    83 C    1.291    93 C    0.983    98 C    0.965
                            84 O    0.187
    93   6 C    3.963 --    92 N    0.983    94 C    0.974    96 C    0.957
                           209 H    0.944
    94   6 C    3.890 --    95 O    1.893    93 C    0.974   210 H    0.949
    95   8 O    2.031 --    94 C    1.893
    96   6 C    3.984 --    97 C    1.012   212 H    0.969   211 H    0.967
                            93 C    0.957
    97   6 C    3.990 --    96 C    1.012    98 C    1.005   214 H    0.975
                           213 H    0.969
    98   6 C    3.954 --    97 C    1.005    92 N    0.965   215 H    0.963
                           216 H    0.958
    99   7 N    2.943 --   100 C    1.023   217 H    0.943   218 H    0.935
   100   6 C    3.939 --    99 N    1.023   101 C    0.989   103 C    0.945
                           219 H    0.910
   101   6 C    3.890 --   102 O    1.884   100 C    0.989   220 H    0.944
   102   8 O    2.041 --   101 C    1.884
   103   6 C    3.972 --   104 C    1.007   222 H    0.971   221 H    0.969
                           100 C    0.945
   104   6 C    3.985 --   103 C    1.007   105 C    1.002   224 H    0.972
                           223 H    0.960
   105   6 C    3.950 --   104 C    1.002   106 N    0.975   225 H    0.963
                           226 H    0.960
   106   7 N    3.479 --   107 C    1.330   105 C    0.975   252 H    0.912
                           108 N    0.105   109 N    0.103
   107   6 C    3.977 --   106 N    1.330   108 N    1.314   109 N    1.300
   108   7 N    3.391 --   107 C    1.314   228 H    0.916   227 H    0.915
                           106 N    0.105
   109   7 N    3.381 --   107 C    1.300   229 H    0.923   230 H    0.920
                           106 N    0.103
   110   1 H    1.000 --   231 H    0.997
   111   1 H    1.000 --   232 H    0.994
   112   1 H    1.000 --   233 H    0.993
   113   1 H    0.998 --   234 H    0.879
   114   1 H    1.000 --   235 H    0.955
   115   1 H    1.000 --   236 H    0.919
   116   1 H    0.999 --   237 H    0.888
   117   1 H    0.999 --   238 H    0.924
   118   1 H    1.000 --   239 H    0.954
   119   1 H    1.000 --   240 H    0.983
   120   1 H    1.000 --   241 H    0.989
   121   1 H    1.000 --   242 H    0.980
   122   1 H    1.000 --   243 H    0.969
   123   1 H    1.000 --   244 H    0.990
   124   1 H    1.000 --   245 H    0.990
   125   1 H    0.999 --   246 H    0.926
   126   1 H    0.998 --   247 H    0.926
   127   1 H    0.975 --     1 N    0.961
   128   1 H    0.968 --     1 N    0.946
   129   1 H    0.991 --     2 C    0.957
   130   1 H    0.996 --     5 C    0.976
   131   1 H    0.993 --     5 C    0.972
   132   1 H    0.993 --     6 C    0.958
   133   1 H    0.992 --     6 C    0.956
   134   1 H    0.944 --     9 N    0.926
   135   1 H    0.939 --     9 N    0.919
   136   1 H    0.950 --    10 N    0.918
   137   1 H    0.991 --    11 C    0.951
   138   1 H    0.997 --    14 C    0.965
   139   1 H    0.998 --    15 C    0.972
   140   1 H    0.997 --    15 C    0.975
   141   1 H    0.997 --    16 C    0.985
   142   1 H    0.998 --    16 C    0.982
   143   1 H    0.996 --    16 C    0.980
   144   1 H    0.998 --    17 C    0.987
   145   1 H    0.997 --    17 C    0.982
   146   1 H    0.998 --    17 C    0.983
   147   1 H    0.953 --    18 N    0.921
   148   1 H    0.990 --    19 C    0.948
   149   1 H    0.992 --    22 C    0.966
   150   1 H    0.993 --    22 C    0.970
   151   1 H    0.988 --    23 C    0.967
   152   1 H    0.973 --    23 C    0.959
   153   1 H    0.990 --    25 C    0.971
   154   1 H    0.972 --    25 C    0.962
   155   1 H    0.972 --    25 C    0.962
   156   1 H    0.958 --    26 N    0.925
   157   1 H    0.990 --    27 C    0.935
   158   1 H    0.989 --    30 C    0.956
   159   1 H    0.994 --    30 C    0.965
   160   1 H    0.953 --    33 N    0.932
   161   1 H    0.942 --    33 N    0.920
   162   1 H    0.947 --    34 N    0.904
   163   1 H    0.988 --    35 C    0.941
   164   1 H    0.986 --    38 C    0.942
   165   1 H    0.984 --    38 C    0.951
   166   1 H    0.990 --    41 C    0.964
   167   1 H    0.944 --    44 N    0.907
   168   1 H    0.989 --    45 C    0.946
   169   1 H    0.983 --    48 C    0.959
   170   1 H    0.989 --    48 C    0.959
   171   1 H    0.965 --    49 S    0.916
   172   1 H    0.952 --    50 N    0.916
   173   1 H    0.983 --    51 C    0.932
   174   1 H    0.939 --    54 C    0.864
   175   1 H    0.978 --    54 C    0.938
   176   1 H    0.990 --    56 C    0.963
   177   1 H    0.989 --    60 C    0.960
   178   1 H    0.987 --    61 C    0.961
   179   1 H    0.992 --    62 C    0.969
   180   1 H    0.991 --    63 C    0.966
   181   1 H    0.947 --    64 N    0.907
   182   1 H    0.988 --    65 C    0.939
   183   1 H    0.993 --    66 C    0.947
   184   1 H    0.994 --    68 C    0.965
   185   1 H    0.990 --    68 C    0.963
   186   1 H    0.994 --    69 C    0.971
   187   1 H    0.993 --    69 C    0.968
   188   1 H    0.994 --    70 C    0.962
   189   1 H    0.994 --    70 C    0.978
   190   1 H    0.985 --    71 C    0.968
   191   1 H    0.987 --    71 C    0.966
   192   1 H    0.959 --    73 N    0.944
   193   1 H    0.953 --    73 N    0.936
   194   1 H    0.956 --    74 C    0.918
   195   1 H    0.982 --    77 C    0.942
   196   1 H    0.979 --    77 C    0.952
   197   1 H    0.946 --    81 N    0.908
   198   1 H    0.985 --    82 C    0.941
   199   1 H    0.993 --    85 C    0.966
   200   1 H    0.994 --    85 C    0.971
   201   1 H    0.994 --    86 C    0.971
   202   1 H    0.993 --    86 C    0.970
   203   1 H    0.985 --    87 C    0.948
   204   1 H    0.994 --    87 C    0.963
   205   1 H    0.942 --    90 N    0.917
   206   1 H    0.939 --    90 N    0.920
   207   1 H    0.936 --    91 N    0.914
   208   1 H    0.938 --    91 N    0.920
   209   1 H    0.988 --    93 C    0.944
   210   1 H    0.989 --    94 C    0.949
   211   1 H    0.993 --    96 C    0.967
   212   1 H    0.994 --    96 C    0.969
   213   1 H    0.993 --    97 C    0.969
   214   1 H    0.995 --    97 C    0.975
   215   1 H    0.991 --    98 C    0.963
   216   1 H    0.990 --    98 C    0.958
   217   1 H    0.957 --    99 N    0.943
   218   1 H    0.950 --    99 N    0.935
   219   1 H    0.937 --   100 C    0.910
   220   1 H    0.983 --   101 C    0.944
   221   1 H    0.990 --   103 C    0.969
   222   1 H    0.990 --   103 C    0.971
   223   1 H    0.994 --   104 C    0.960
   224   1 H    0.993 --   104 C    0.972
   225   1 H    0.992 --   105 C    0.963
   226   1 H    0.992 --   105 C    0.960
   227   1 H    0.939 --   108 N    0.915
   228   1 H    0.933 --   108 N    0.916
   229   1 H    0.942 --   109 N    0.923
   230   1 H    0.938 --   109 N    0.920
   231   1 H    1.000 --   110 H    0.997
   232   1 H    1.000 --   111 H    0.994
   233   1 H    1.000 --   112 H    0.993
   234   1 H    0.999 --   113 H    0.879
   235   1 H    1.000 --   114 H    0.955
   236   1 H    1.000 --   115 H    0.919
   237   1 H    0.999 --   116 H    0.888
   238   1 H    0.999 --   117 H    0.924
   239   1 H    1.000 --   118 H    0.954
   240   1 H    0.999 --   119 H    0.983
   241   1 H    1.000 --   120 H    0.989
   242   1 H    1.000 --   121 H    0.980
   243   1 H    0.999 --   122 H    0.969
   244   1 H    1.000 --   123 H    0.990
   245   1 H    1.000 --   124 H    0.990
   246   1 H    1.000 --   125 H    0.926
   247   1 H    0.999 --   126 H    0.926
   248   1 H    0.909 --    72 N    0.891
   249   1 H    0.908 --    72 N    0.896
   250   1 H    0.906 --    72 N    0.894
   251   1 H    0.937 --    88 N    0.880
   252   1 H    0.946 --   106 N    0.912
   253   1 H    0.953 --    40 N    0.915
 ---------------------------------------------------------------------------

Topologies differ in total number of bonds
Writing topology from bond orders to xtbtopo.mol

molecular dipole:
                 x           y           z       tot (Debye)
 q only:       10.188     -29.694     282.122
   full:       11.800     -30.062     283.036     724.074
molecular quadrupole (traceless):
                xx          xy          yy          xz          yz          zz
 q only:    -8119.790    -206.020   -7601.816     980.826   -2517.692   15721.606
  q+dip:    -8143.592    -243.822   -7648.671    1126.330   -2578.449   15792.263
   full:    -8151.541    -241.801   -7642.612    1126.164   -2575.924   15794.153


           -------------------------------------------------
          | TOTAL ENERGY             -355.320082644330 Eh   |
          | GRADIENT NORM               1.216226930869 Eh/α |
          | HOMO-LUMO GAP               0.020375452059 eV   |
           -------------------------------------------------
########################################################################
[WARNING] Runtime exception occurred
-2- restart_readRestart: Dimension missmatch in restart file.
-1- restart_readRestart: Number of electron missmatch in restart file.
########################################################################

------------------------------------------------------------------------
 * finished run on 2025/05/05 at 17:14:27.846     
------------------------------------------------------------------------
 total:
 * wall-time:     0 d,  0 h,  0 min,  1.620 sec
 *  cpu-time:     0 d,  0 h,  0 min, 50.499 sec
 * ratio c/w:    31.173 speedup
 SCF:
 * wall-time:     0 d,  0 h,  0 min,  1.594 sec
 *  cpu-time:     0 d,  0 h,  0 min, 49.804 sec
 * ratio c/w:    31.247 speedup

