      -----------------------------------------------------------      
     |                   =====================                   |     
     |                           x T B                           |     
     |                   =====================                   |     
     |                         S. Grimme                         |     
     |          Mulliken Center for Theoretical Chemistry        |     
     |                    University of Bonn                     |     
      -----------------------------------------------------------      

   * xtb version 6.7.1 (edcfbbe) compiled by 'conda@afd1a870197c' on 2025-04-11

   xtb is free software: you can redistribute it and/or modify it under
   the terms of the GNU Lesser General Public License as published by
   the Free Software Foundation, either version 3 of the License, or
   (at your option) any later version.
   
   xtb is distributed in the hope that it will be useful,
   but WITHOUT ANY WARRANTY; without even the implied warranty of
   MERCHANTABILITY or FITNESS FOR A PARTICULAR PURPOSE.  See the
   GNU Lesser General Public License for more details.
   
   Cite this work as:
   * C. Bannwarth, E. Caldeweyher, S. Ehlert, A. Hansen, P. Pracht,
     J. Seibert, S. Spicher, S. Grimme, WIREs Comput. Mol. Sci., 2020, 11,
     e01493. DOI: 10.1002/wcms.1493
   
   for GFN2-xTB:
   * C. Bannwarth, S. Ehlert and S. Grimme., J. Chem. Theory Comput., 2019,
     15, 1652-1671. DOI: 10.1021/acs.jctc.8b01176
   for GFN1-xTB:
   * S. Grimme, C. Bannwarth, P. Shushkov, J. Chem. Theory Comput., 2017,
     13, 1989-2009. DOI: 10.1021/acs.jctc.7b00118
   for GFN0-xTB:
   * P. Pracht, E. Caldeweyher, S. Ehlert, S. Grimme, ChemRxiv, 2019, preprint.
     DOI: 10.26434/chemrxiv.8326202.v1
   for GFN-FF:
   * S. Spicher and S. Grimme, Angew. Chem. Int. Ed., 2020, 59, 15665-15673.
     DOI: 10.1002/anie.202004239
   
   for ALPB and GBSA implicit solvation:
   * S. Ehlert, M. Stahn, S. Spicher, S. Grimme, J. Chem. Theory Comput.,
     2021, 17, 4250-4261. DOI: 10.1021/acs.jctc.1c00471
   
   for ddCOSMO and CPCM-X implicit solvation:
   * M. Stahn, S. Ehlert, S. Grimme, J. Phys. Chem. A,
     2023, XX, XXXX-XXXX. DOI: 10.1021/acs.jpca.3c04382
   
   for DFT-D4:
   * E. Caldeweyher, C. Bannwarth and S. Grimme, J. Chem. Phys., 2017,
     147, 034112. DOI: 10.1063/1.4993215
   * E. Caldeweyher, S. Ehlert, A. Hansen, H. Neugebauer, S. Spicher,
     C. Bannwarth and S. Grimme, J. Chem. Phys., 2019, 150, 154122.
     DOI: 10.1063/1.5090222
   * E. Caldeweyher, J.-M. Mewes, S. Ehlert and S. Grimme, Phys. Chem. Chem. Phys.
     2020, 22, 8499-8512. DOI: 10.1039/D0CP00502A
   
   for sTDA-xTB:
   * S. Grimme and C. Bannwarth, J. Chem. Phys., 2016, 145, 054103.
     DOI: 10.1063/1.4959605
   
   in the mass-spec context:
   * V. Asgeirsson, C. Bauer and S. Grimme, Chem. Sci., 2017, 8, 4879.
     DOI: 10.1039/c7sc00601b
   * J. Koopman and S. Grimme, ACS Omega 2019, 4, 12, 15120-15133.
     DOI: 10.1021/acsomega.9b02011
   
   for metadynamics refer to:
   * S. Grimme, J. Chem. Theory Comput., 2019, 155, 2847-2862
     DOI: 10.1021/acs.jctc.9b00143
   
   for SPH calculations refer to:
   * S. Spicher and S. Grimme, J. Chem. Theory Comput., 2021, 17, 1701-1714
     DOI: 10.1021/acs.jctc.0c01306
   
   for ONIOM refer to:
   * C. Plett, A. Katbashev, S. Ehlert, S. Grimme, M. Bursch,
     Phys. Chem. Chem. Phys., 2023, 25, 17860-17868. DOI: 10.1039/D3CP02178E
   
   for DIPRO refer to:
   * J. Kohn, N. Gildemeister, S. Grimme, D. Fazzi, A. Hansen,
     J. Chem. Phys., 2023, just accepted.
   
   for PTB refer to:
   * S. Grimme, M. Mueller, A. Hansen, J. Chem. Phys., 2023, 158, 124111.
     DOI: 10.1063/5.0137838
   
   with help from (in alphabetical order)
   P. Atkinson, C. Bannwarth, F. Bohle, G. Brandenburg, E. Caldeweyher
   M. Checinski, S. Dohm, S. Ehlert, S. Ehrlich, I. Gerasimov, C. Hölzer
   A. Katbashev, J. Kohn, J. Koopman, C. Lavigne, S. Lehtola, F. März, M. Müller,
   F. Musil, H. Neugebauer, J. Pisarek, C. Plett, P. Pracht, F. Pultar,
   J. Seibert, P. Shushkov, S. Spicher, M. Stahn, M. Steiner, T. Strunk,
   J. Stückrath, T. Rose, and J. Unsleber
   
 * started run on 2025/05/05 at 16:40:28.199     
   ID    Z sym.   atoms
    1    7 N      1, 9, 16, 22, 25, 26, 34, 35, 43, 51, 58, 65, 74, 82, 90
    2    6 C      2, 3, 5, 6, 8, 10, 11, 13-15, 17, 18, 20, 21, 23, 24, 27,
                  28, 30-33, 36, 37, 39, 40, 42, 44, 45, 47-50, 52, 53,
                  55-57, 59, 60, 62-64, 66, 67, 69-71, 75, 76, 78-81, 83, 84,
                  86, 87, 91, 92, 94-100
    3    8 O      4, 12, 19, 29, 38, 46, 54, 61, 68, 72, 73, 77, 85, 88, 89,
                  93, 101
    4   16 S      7, 41
    5    1 H      102-270

           -------------------------------------------------
          |                Calculation Setup                |
           -------------------------------------------------

          program call               : xtb /tmp/tmpuaivx6hf/HIE/input.xyz --alpb ether --chrg -1 --input /tmp/tmpuaivx6hf/HIE/constraints.inp --gfn 2
          hostname                   : fedora
          coordinate file            : /tmp/tmpuaivx6hf/HIE/input.xyz
          omp threads                :                    32


molecular fragmentation (1/2 indicates fragments):
111111111111111111111111111111111111111111222222222222222222222222222222
222222222222222222222222222222222222222222222222222222221111111111111111
111111111111111111111111112222222222222222222222222222222222222222222222
222222222222222222222222222222222222222222222222221111
# atoms in fragment 1/2:    88   182
 fragment masses (1/2) :      626.84      894.45
CMA distance (Bohr)    :  10.988
constraining FC (au)   :  0.0500

           -------------------------------------------------
          |                 G F N 2 - x T B                 |
           -------------------------------------------------

        Reference                      10.1021/acs.jctc.8b01176
      * Hamiltonian:
        H0-scaling (s, p, d)           1.850000    2.230000    2.230000
        zeta-weighting                 0.500000
      * Dispersion:
        s8                             2.700000
        a1                             0.520000
        a2                             5.000000
        s9                             5.000000
      * Repulsion:
        kExp                           1.500000    1.000000
        rExp                           1.000000
      * Coulomb:
        alpha                          2.000000
        third order                    shell-resolved
        anisotropic                    true
        a3                             3.000000
        a5                             4.000000
        cn-shift                       1.200000
        cn-exp                         4.000000
        max-rad                        5.000000

      * Solvation model:               ALPB
        Solvent                        ether
        Parameter file                 internal GFN2-xTB/ALPB
        Dielectric constant                4.3300E+00
        Reference state                gsolv [1 M gas/solution]
        Free energy shift                  4.9534E-03 Eh       3.1083E+00 kcal/mol
        Temperature                        2.9815E+02 K
        Density                            7.1300E-01 kg/L
        Solvent mass                       7.4120E+01 g/mol
        Interaction kernel             P16
        Born radius scaling (c1)           1.5847E+00
        Born radii integrator          GBOBC
        Born offset                        0.0000E+00 a0       0.0000E+00 AA
        H-bond correction              true
        Ion screening                  false
        Surface tension                    1.0000E-05 Eh       1.5569E+01 dyn/cm
        Grid points                               230 per atom

          ...................................................
          :                      SETUP                      :
          :.................................................:
          :  # basis functions                 585          :
          :  # atomic orbitals                 583          :
          :  # shells                          373          :
          :  # electrons                       627          :
          :  max. iterations                   250          :
          :  Hamiltonian                  GFN2-xTB          :
          :  restarted?                      false          :
          :  GBSA solvation                   true          :
          :  PC potential                    false          :
          :  electronic temp.          300.0000000     K    :
          :  accuracy                    1.0000000          :
          :  -> integral cutoff          0.2500000E+02      :
          :  -> integral neglect         0.1000000E-07      :
          :  -> SCF convergence          0.1000000E-05 Eh   :
          :  -> wf. convergence          0.1000000E-03 e    :
          :  Broyden damping             0.4000000          :
          :  net charge                         -1          :
          :  unpaired electrons                  0          :
          ...................................................

 iter      E             dE          RMSdq      gap      omega  full diag
   1   -352.3830252 -0.352383E+03  0.420E+00    2.44       0.0  T
   2   -352.7865107 -0.403486E+00  0.250E+00    0.07       1.0  T
   3   -352.9970506 -0.210540E+00  0.191E+00    1.71       1.0  T
   4   -353.5816839 -0.584633E+00  0.784E-01    1.68       1.0  T
   5   -353.4903441  0.913398E-01  0.595E-01    1.59       1.0  T
   6   -353.5882032 -0.978590E-01  0.345E-01    0.63       1.0  T
   7   -353.6044347 -0.162315E-01  0.211E-01    0.62       1.0  T
   8   -353.6071519 -0.271723E-02  0.171E-01    0.90       1.0  T
   9   -353.4726553  0.134497E+00  0.554E-01    0.85       1.0  T
  10   -353.5302810 -0.576257E-01  0.429E-01    0.97       1.0  T
  11   -353.6097150 -0.794340E-01  0.142E-01    0.83       1.0  T
  12   -353.6097197 -0.474814E-05  0.140E-01    0.83       1.0  T
  13   -353.6110707 -0.135096E-02  0.127E-01    0.86       1.0  T
  14   -353.6160396 -0.496893E-02  0.722E-02    0.91       1.0  T
  15   -353.6183958 -0.235612E-02  0.189E-02    0.94       1.0  T
  16   -353.6185135 -0.117767E-03  0.986E-03    0.94       1.0  T
  17   -353.6185519 -0.383705E-04  0.376E-03    0.93       1.6  T
  18   -353.6185579 -0.604908E-05  0.108E-03    0.93       5.6  T
  19   -353.6185513  0.660393E-05  0.385E-03    0.93       1.6  T
  20   -353.6185585 -0.711944E-05  0.194E-04    0.93      31.4  T
  21   -353.6185585 -0.136906E-07  0.621E-05    0.93      98.0  T
  22   -353.6185584  0.196143E-07  0.207E-04    0.93      29.4  T

   *** convergence criteria satisfied after 22 iterations ***

         #    Occupation            Energy/Eh            Energy/eV
      -------------------------------------------------------------
         1        2.0000           -0.7229154             -19.6715
       ...           ...                  ...                  ...
       308        2.0000           -0.3469326              -9.4405
       309        2.0000           -0.3447046              -9.3799
       310        2.0000           -0.3402017              -9.2574
       311        1.9991           -0.3315256              -9.0213
       312        1.9648           -0.3279850              -8.9249
       313        1.8135           -0.3262379              -8.8774
       314        1.2225           -0.3236495              -8.8070 (HOMO)
       315                         -0.2894148              -7.8754 (LUMO)
       316                         -0.2768053              -7.5323
       317                         -0.2742154              -7.4618
       318                         -0.2723214              -7.4102
       319                         -0.2673494              -7.2749
       ...                                ...                  ...
       583                          1.2288466              33.4386
      -------------------------------------------------------------
                  HL-Gap            0.0342348 Eh            0.9316 eV
             Fermi-level           -0.3156677 Eh           -8.5898 eV

 SCC (total)                   0 d,  0 h,  0 min,  1.166 sec
 SCC setup                      ...        0 min,  0.007 sec (  0.595%)
 Dispersion                     ...        0 min,  0.011 sec (  0.928%)
 classical contributions        ...        0 min,  0.000 sec (  0.042%)
 integral evaluation            ...        0 min,  0.018 sec (  1.539%)
 iterations                     ...        0 min,  1.031 sec ( 88.439%)
 molecular gradient             ...        0 min,  0.091 sec (  7.828%)
 printout                       ...        0 min,  0.007 sec (  0.625%)

         :::::::::::::::::::::::::::::::::::::::::::::::::::::
         ::                     SUMMARY                     ::
         :::::::::::::::::::::::::::::::::::::::::::::::::::::
         :: total energy            -346.923647854403 Eh    ::
         :: total w/o Gsasa/hb      -346.823367757372 Eh    ::
         :: gradient norm              1.493315776977 Eh/a0 ::
         :: HOMO-LUMO gap              0.931575559457 eV    ::
         ::.................................................::
         :: SCC energy              -353.594743688928 Eh    ::
         :: -> isotropic ES            0.984515246412 Eh    ::
         :: -> anisotropic ES          0.122156619303 Eh    ::
         :: -> anisotropic XC          0.285305593671 Eh    ::
         :: -> dispersion             -0.295241199927 Eh    ::
         :: -> Gsolv                  -0.287899346620 Eh    ::
         ::    -> Gelec               -0.187619249589 Eh    ::
         ::    -> Gsasa               -0.085767604487 Eh    ::
         ::    -> Ghb                 -0.019465930121 Eh    ::
         ::    -> Gshift               0.004953437577 Eh    ::
         :: repulsion energy           6.671095834525 Eh    ::
         :: add. restraining           0.000000000000 Eh    ::
         :: total charge              -1.000000000001 e     ::
         :::::::::::::::::::::::::::::::::::::::::::::::::::::

           -------------------------------------------------
          |                Property Printout                |
           -------------------------------------------------

    * Orbital Energies and Occupations

         #    Occupation            Energy/Eh            Energy/eV
      -------------------------------------------------------------
         1        2.0000           -0.7229154             -19.6715
       ...           ...                  ...                  ...
       302        2.0000           -0.3556443              -9.6776
       303        2.0000           -0.3553720              -9.6702
       304        2.0000           -0.3543233              -9.6416
       305        2.0000           -0.3540611              -9.6345
       306        2.0000           -0.3503370              -9.5332
       307        2.0000           -0.3490473              -9.4981
       308        2.0000           -0.3469326              -9.4405
       309        2.0000           -0.3447046              -9.3799
       310        2.0000           -0.3402017              -9.2574
       311        1.9991           -0.3315256              -9.0213
       312        1.9648           -0.3279850              -8.9249
       313        1.8135           -0.3262379              -8.8774
       314        1.2225           -0.3236495              -8.8070 (HOMO)
       315                         -0.2894148              -7.8754 (LUMO)
       316                         -0.2768053              -7.5323
       317                         -0.2742154              -7.4618
       318                         -0.2723214              -7.4102
       319                         -0.2673494              -7.2749
       320                         -0.2417854              -6.5793
       321                         -0.2234471              -6.0803
       322                         -0.2062826              -5.6132
       323                         -0.2028179              -5.5190
       324                         -0.2024407              -5.5087
       325                         -0.1999807              -5.4418
       ...                                ...                  ...
       583                          1.2288466              33.4386
      -------------------------------------------------------------
                  HL-Gap            0.0342348 Eh            0.9316 eV
             Fermi-level           -0.3156677 Eh           -8.5898 eV

     #   Z          covCN         q      C6AA      α(0)
     1   7 N        2.632    -0.366    29.453     8.060
     2   6 C        3.785     0.040    19.922     6.358
     3   6 C        2.761     0.256    22.684     7.800
     4   8 O        0.859    -0.493    23.629     6.517
     5   6 C        3.814    -0.064    21.714     6.632
     6   6 C        3.795    -0.014    20.828     6.499
     7  16 S        1.947    -0.240   151.319    20.704
     8   6 C        3.749    -0.054    21.611     6.630
     9   7 N        2.755    -0.102    23.238     7.160
    10   6 C        3.827     0.020    20.225     6.399
    11   6 C        2.757     0.276    22.340     7.740
    12   8 O        0.859    -0.507    23.948     6.561
    13   6 C        3.834    -0.062    21.672     6.623
    14   6 C        3.835    -0.064    21.708     6.629
    15   6 C        3.762    -0.004    20.702     6.486
    16   7 N        2.689    -0.155    24.363     7.331
    17   6 C        3.799     0.025    20.155     6.392
    18   6 C        2.752     0.269    22.451     7.759
    19   8 O        0.858    -0.504    23.873     6.551
    20   6 C        3.810    -0.073    21.881     6.658
    21   6 C        3.089     0.048    26.813     8.488
    22   7 N        1.991    -0.307    28.767     7.955
    23   6 C        3.061    -0.066    29.572     8.918
    24   6 C        2.111    -0.017    31.301     9.040
    25   7 N        2.838    -0.078    22.747     7.084
    26   7 N        2.686    -0.163    24.537     7.357
    27   6 C        3.793     0.019    20.266     6.411
    28   6 C        2.757     0.265    22.526     7.772
    29   8 O        0.858    -0.476    23.256     6.466
    30   6 C        3.815    -0.072    21.872     6.656
    31   6 C        3.805    -0.077    21.965     6.672
    32   6 C        3.809    -0.091    22.227     6.711
    33   6 C        3.734    -0.052    21.589     6.631
    34   7 N        3.486    -0.168    24.627     7.371
    35   7 N        2.685    -0.162    24.503     7.352
    36   6 C        3.792     0.026    20.152     6.393
    37   6 C        2.760     0.197    23.807     7.990
    38   8 O        0.856    -0.349    20.695     6.099
    39   6 C        3.840    -0.065    21.720     6.630
    40   6 C        3.800    -0.015    20.838     6.499
    41  16 S        1.978    -0.227   150.776    20.667
    42   6 C        3.751    -0.058    21.671     6.639
    43   7 N        2.634    -0.359    29.246     8.032
    44   6 C        3.784     0.036    19.988     6.368
    45   6 C        2.768     0.197    23.794     7.989
    46   8 O        0.856    -0.368    21.055     6.152
    47   6 C        3.814    -0.074    21.905     6.661
    48   6 C        3.850    -0.011    20.747     6.479
    49   6 C        3.761    -0.112    22.698     6.792
    50   6 C        3.758    -0.117    22.789     6.806
    51   7 N        2.634    -0.352    29.069     8.007
    52   6 C        3.787     0.035    20.004     6.370
    53   6 C        2.766     0.201    23.720     7.976
    54   8 O        0.856    -0.372    21.122     6.162
    55   6 C        3.850    -0.020    20.902     6.503
    56   6 C        3.757    -0.121    22.867     6.818
    57   6 C        3.757    -0.114    22.730     6.797
    58   7 N        2.636    -0.362    29.329     8.043
    59   6 C        3.783     0.030    20.082     6.384
    60   6 C        2.769     0.203    23.690     7.971
    61   8 O        0.856    -0.367    21.041     6.150
    62   6 C        3.848    -0.019    20.873     6.498
    63   6 C        3.760    -0.117    22.787     6.805
    64   6 C        3.761    -0.111    22.661     6.786
    65   7 N        2.632    -0.360    29.278     8.036
    66   6 C        3.792     0.029    20.091     6.383
    67   6 C        2.761     0.272    22.398     7.750
    68   8 O        0.858    -0.511    24.022     6.571
    69   6 C        3.813    -0.051    21.483     6.597
    70   6 C        3.810    -0.077    21.967     6.672
    71   6 C        2.691     0.371    20.717     7.449
    72   8 O        0.857    -0.602    26.180     6.860
    73   8 O        0.857    -0.596    26.010     6.838
    74   7 N        2.693    -0.161    24.475     7.348
    75   6 C        3.804     0.027    20.118     6.386
    76   6 C        2.762     0.274    22.373     7.746
    77   8 O        0.858    -0.516    24.149     6.589
    78   6 C        3.818    -0.082    22.043     6.682
    79   6 C        3.851    -0.013    20.777     6.483
    80   6 C        3.761    -0.120    22.843     6.813
    81   6 C        3.761    -0.110    22.640     6.783
    82   7 N        2.691    -0.231    26.045     7.580
    83   6 C        3.791     0.046    19.806     6.338
    84   6 C        2.760     0.184    24.044     8.030
    85   8 O        0.856    -0.389    21.456     6.210
    86   6 C        3.804    -0.094    22.288     6.721
    87   6 C        2.685     0.364    20.823     7.468
    88   8 O        0.857    -0.605    26.251     6.869
    89   8 O        0.857    -0.619    26.591     6.914
    90   7 N        2.630    -0.356    29.164     8.021
    91   6 C        3.788     0.046    19.811     6.339
    92   6 C        2.772     0.192    23.894     8.006
    93   8 O        0.856    -0.360    20.893     6.128
    94   6 C        3.822    -0.071    21.843     6.651
    95   6 C        2.972    -0.008    28.209     8.712
    96   6 C        2.930    -0.054    29.332     8.882
    97   6 C        2.932    -0.052    29.279     8.874
    98   6 C        2.919    -0.080    30.000     8.982
    99   6 C        2.919    -0.059    29.457     8.900
   100   6 C        2.856     0.149    24.763     8.156
   101   8 O        1.661    -0.432    21.478     6.256
   102   1 H        0.980    -0.003     3.095     2.749
   103   1 H        0.980    -0.007     3.167     2.781
   104   1 H        0.980     0.000     3.041     2.725
   105   1 H        0.980     0.009     2.890     2.657
   106   1 H        0.980    -0.015     3.314     2.844
   107   1 H        0.980    -0.007     3.165     2.780
   108   1 H        0.980     0.016     2.781     2.606
   109   1 H        0.980     0.017     2.765     2.598
   110   1 H        0.980     0.029     2.594     2.517
   111   1 H        0.980    -0.022     3.456     2.905
   112   1 H        0.980    -0.015     3.327     2.850
   113   1 H        0.980     0.048     2.339     2.390
   114   1 H        0.980     0.013     2.827     2.627
   115   1 H        0.980     0.014     2.821     2.625
   116   1 H        0.980    -0.006     3.159     2.777
   117   1 H        0.980     0.026     2.629     2.534
   118   1 H        0.980     0.010     2.885     2.654
   119   1 H        0.980     0.004     2.988     2.701
   120   1 H        0.980     0.001     3.025     2.718
   121   1 H        0.980     0.011     2.868     2.646
   122   1 H        0.980    -0.012     3.273     2.827
   123   1 H        0.980    -0.010     3.235     2.810
   124   1 H        0.980     0.025     2.645     2.542
   125   1 H        0.980    -0.006     3.149     2.773
   126   1 H        0.980     0.018     2.758     2.595
   127   1 H        0.980    -0.005     3.133     2.766
   128   1 H        0.980    -0.010     3.235     2.811
   129   1 H        0.860     0.152     1.387     1.845
   130   1 H        0.860     0.163     1.318     1.799
   131   1 H        0.927     0.012     2.853     2.641
   132   1 H        0.927     0.068     2.111     2.272
   133   1 H        0.927     0.048     2.349     2.397
   134   1 H        0.927     0.074     2.045     2.236
   135   1 H        0.927     0.041     2.436     2.441
   136   1 H        0.927     0.062     2.179     2.308
   137   1 H        0.927     0.057     2.234     2.337
   138   1 H        0.927     0.050     2.323     2.384
   139   1 H        0.927     0.081     1.969     2.194
   140   1 H        0.927     0.060     2.193     2.316
   141   1 H        0.927     0.060     2.204     2.321
   142   1 H        0.927     0.065     2.144     2.290
   143   1 H        0.927     0.053     2.283     2.363
   144   1 H        0.927     0.068     2.104     2.268
   145   1 H        0.927     0.058     2.224     2.332
   146   1 H        0.861     0.210     1.055     1.609
   147   1 H        0.927     0.076     2.023     2.224
   148   1 H        0.927     0.060     2.202     2.320
   149   1 H        0.927     0.075     2.032     2.229
   150   1 H        1.034     0.084     1.925     2.167
   151   1 H        0.861     0.228     0.973     1.546
   152   1 H        0.927     0.085     1.930     2.172
   153   1 H        0.927     0.059     2.210     2.325
   154   1 H        0.927     0.066     2.130     2.282
   155   1 H        0.926     0.050     2.322     2.383
   156   1 H        0.927     0.057     2.229     2.335
   157   1 H        0.926     0.087     1.908     2.160
   158   1 H        0.927     0.071     2.073     2.252
   159   1 H        0.927     0.121     1.604     1.980
   160   1 H        0.926     0.119     1.618     1.989
   161   1 H        0.861     0.217     1.025     1.586
   162   1 H        0.926     0.092     1.857     2.131
   163   1 H        0.929     0.078     1.998     2.211
   164   1 H        0.927     0.067     2.119     2.276
   165   1 H        0.927     0.075     2.033     2.230
   166   1 H        0.927     0.066     2.128     2.281
   167   1 H        0.927     0.061     2.192     2.315
   168   1 H        0.927     0.071     2.075     2.253
   169   1 H        0.927     0.055     2.262     2.352
   170   1 H        0.927     0.060     2.199     2.319
   171   1 H        0.860     0.152     1.386     1.844
   172   1 H        0.860     0.160     1.335     1.810
   173   1 H        0.927     0.065     2.140     2.287
   174   1 H        0.929     0.062     2.170     2.304
   175   1 H        0.927     0.051     2.311     2.377
   176   1 H        0.927     0.049     2.334     2.389
   177   1 H        0.927     0.028     2.617     2.530
   178   1 H        0.927     0.046     2.365     2.405
   179   1 H        0.927     0.034     2.533     2.489
   180   1 H        0.927     0.043     2.411     2.428
   181   1 H        0.927     0.040     2.445     2.445
   182   1 H        0.927     0.038     2.481     2.463
   183   1 H        0.926     0.040     2.448     2.447
   184   1 H        0.860     0.157     1.354     1.823
   185   1 H        0.860     0.159     1.343     1.815
   186   1 H        0.927     0.052     2.290     2.366
   187   1 H        0.929     0.067     2.114     2.274
   188   1 H        0.927     0.038     2.478     2.462
   189   1 H        0.927     0.043     2.408     2.427
   190   1 H        0.927     0.035     2.514     2.479
   191   1 H        0.927     0.050     2.316     2.380
   192   1 H        0.927     0.046     2.373     2.409
   193   1 H        0.927     0.051     2.301     2.372
   194   1 H        0.927     0.045     2.388     2.417
   195   1 H        0.860     0.165     1.306     1.790
   196   1 H        0.860     0.163     1.315     1.796
   197   1 H        0.927     0.050     2.316     2.380
   198   1 H        0.929     0.062     2.179     2.308
   199   1 H        0.927     0.035     2.514     2.479
   200   1 H        0.927     0.052     2.297     2.370
   201   1 H        0.927     0.028     2.613     2.528
   202   1 H        0.927     0.052     2.294     2.369
   203   1 H        0.927     0.046     2.374     2.409
   204   1 H        0.927     0.050     2.320     2.382
   205   1 H        0.927     0.038     2.475     2.460
   206   1 H        0.860     0.153     1.384     1.843
   207   1 H        0.860     0.181     1.210     1.723
   208   1 H        0.927     0.030     2.585     2.514
   209   1 H        0.927     0.041     2.438     2.442
   210   1 H        0.927     0.039     2.461     2.453
   211   1 H        0.927     0.035     2.515     2.480
   212   1 H        0.927     0.033     2.550     2.497
   213   1 H        0.861     0.209     1.060     1.613
   214   1 H        0.927     0.065     2.142     2.289
   215   1 H        0.927     0.060     2.203     2.321
   216   1 H        0.927     0.060     2.203     2.321
   217   1 H        0.927     0.034     2.533     2.489
   218   1 H        0.927     0.048     2.343     2.393
   219   1 H        0.927     0.043     2.414     2.430
   220   1 H        0.927     0.049     2.334     2.389
   221   1 H        0.927     0.038     2.474     2.460
   222   1 H        0.927     0.045     2.389     2.417
   223   1 H        0.926     0.034     2.532     2.488
   224   1 H        0.966     0.245     0.896     1.479
   225   1 H        0.927     0.074     2.045     2.236
   226   1 H        0.929     0.097     1.809     2.103
   227   1 H        0.927     0.046     2.372     2.408
   228   1 H        0.926     0.054     2.268     2.355
   229   1 H        0.860     0.153     1.378     1.839
   230   1 H        0.860     0.154     1.371     1.835
   231   1 H        0.927     0.036     2.504     2.475
   232   1 H        0.929     0.059     2.207     2.323
   233   1 H        0.927     0.053     2.284     2.363
   234   1 H        0.926     0.069     2.091     2.261
   235   1 H        0.929     0.044     2.389     2.417
   236   1 H        0.929     0.063     2.166     2.301
   237   1 H        0.929     0.045     2.387     2.416
   238   1 H        0.929     0.060     2.195     2.317
   239   1 H        0.807     0.338     0.616     1.233
   240   1 H        0.980     0.002     3.009     2.710
   241   1 H        0.980     0.010     2.880     2.652
   242   1 H        0.980    -0.000     3.055     2.731
   243   1 H        0.980    -0.010     3.228     2.808
   244   1 H        0.980     0.016     2.782     2.606
   245   1 H        0.980     0.033     2.536     2.488
   246   1 H        0.980    -0.032     3.666     2.992
   247   1 H        0.980    -0.027     3.571     2.953
   248   1 H        0.980    -0.014     3.310     2.843
   249   1 H        0.980     0.018     2.760     2.596
   250   1 H        0.980     0.004     2.988     2.701
   251   1 H        0.980    -0.018     3.388     2.876
   252   1 H        0.980    -0.013     3.291     2.835
   253   1 H        0.980    -0.027     3.569     2.952
   254   1 H        0.980     0.022     2.688     2.562
   255   1 H        0.980    -0.028     3.585     2.959
   256   1 H        0.980    -0.009     3.215     2.802
   257   1 H        0.980    -0.003     3.110     2.756
   258   1 H        0.980    -0.001     3.059     2.733
   259   1 H        0.980    -0.009     3.215     2.802
   260   1 H        0.980     0.013     2.841     2.634
   261   1 H        0.980    -0.000     3.051     2.729
   262   1 H        0.980    -0.016     3.343     2.857
   263   1 H        0.980     0.007     2.930     2.675
   264   1 H        0.980    -0.015     3.319     2.847
   265   1 H        0.980     0.004     2.982     2.698
   266   1 H        0.980     0.006     2.941     2.680
   267   1 H        0.860     0.298     0.719     1.328
   268   1 H        0.860     0.304     0.701     1.312
   269   1 H        0.860     0.299     0.717     1.326
   270   1 H        0.858     0.176     1.239     1.744

 Mol. C6AA /au·bohr⁶  :     573770.138602
 Mol. C8AA /au·bohr⁸  :   12254803.415139
 Mol. α(0) /au        :       1146.160684


Wiberg/Mayer (AO) data.
largest (>0.10) Wiberg bond orders for each atom

 ---------------------------------------------------------------------------
     #   Z sym  total        # sym  WBO       # sym  WBO       # sym  WBO
 ---------------------------------------------------------------------------
     1   7 N    2.990 --     2 C    1.009   129 H    0.963   130 H    0.957
     2   6 C    3.987 --     1 N    1.009     5 C    0.984   131 H    0.952
                             3 C    0.935
     3   6 C    3.946 --     4 O    1.633     9 N    1.291     2 C    0.935
     4   8 O    1.951 --     3 C    1.633     9 N    0.197
     5   6 C    3.994 --     6 C    1.006     2 C    0.984   133 H    0.974
                           132 H    0.968
     6   6 C    3.974 --     5 C    1.006     7 S    0.981   135 H    0.977
                           134 H    0.959
     7  16 S    2.080 --     8 C    1.008     6 C    0.981
     8   6 C    3.979 --     7 S    1.008   137 H    0.983   136 H    0.977
                           138 H    0.974
     9   7 N    3.509 --     3 C    1.291    10 C    0.969    15 C    0.966
                             4 O    0.197
    10   6 C    3.968 --    13 C    0.972     9 N    0.969   139 H    0.954
                            11 C    0.943
    11   6 C    3.949 --    12 O    1.617    16 N    1.317    10 C    0.943
    12   8 O    1.926 --    11 C    1.617    16 N    0.195
    13   6 C    3.990 --    14 C    1.011   140 H    0.976    10 C    0.972
                           141 H    0.972
    14   6 C    3.994 --    13 C    1.011    15 C    1.003   143 H    0.978
                           142 H    0.974
    15   6 C    3.965 --    14 C    1.003   145 H    0.969     9 N    0.966
                           144 H    0.965
    16   7 N    3.486 --    11 C    1.317    17 C    0.980   146 H    0.923
                            12 O    0.195
    17   6 C    3.965 --    16 N    0.980    20 C    0.965   147 H    0.950
                            18 C    0.940
    18   6 C    3.951 --    19 O    1.604    26 N    1.328    17 C    0.940
    19   8 O    1.930 --    18 C    1.604    26 N    0.197
    20   6 C    3.988 --    21 C    1.008   149 H    0.970    17 C    0.965
                           148 H    0.958
    21   6 C    3.946 --    23 C    1.561    22 N    1.220    20 C    1.008
    22   7 N    3.026 --    24 C    1.623    21 C    1.220
    23   6 C    3.920 --    21 C    1.561    25 N    1.175   150 H    0.827
                            24 C    0.122    82 N    0.113
    24   6 C    3.158 --    22 N    1.623    25 N    1.324    23 C    0.122
    25   7 N    3.586 --    24 C    1.324    23 C    1.175   270 H    0.934
    26   7 N    3.487 --    18 C    1.328    27 C    0.979   151 H    0.895
                            19 O    0.197
    27   6 C    3.965 --    26 N    0.979    30 C    0.966   152 H    0.952
                            28 C    0.942
    28   6 C    3.949 --    29 O    1.623    35 N    1.301    27 C    0.942
    29   8 O    1.971 --    28 C    1.623    35 N    0.191
    30   6 C    3.988 --    31 C    1.005   153 H    0.972   154 H    0.971
                            27 C    0.966
    31   6 C    3.994 --    30 C    1.005    32 C    1.001   155 H    0.979
                           156 H    0.977
    32   6 C    3.985 --    33 C    1.012    31 C    1.001   158 H    0.972
                           157 H    0.965
    33   6 C    3.907 --    32 C    1.012   160 H    0.967   159 H    0.964
                            34 N    0.943
    34   7 N    3.652 --    33 C    0.943   267 H    0.897   268 H    0.895
                           269 H    0.894
    35   7 N    3.469 --    28 C    1.301    36 C    0.975   161 H    0.925
                            29 O    0.191
    36   6 C    3.963 --    37 C    0.976    35 N    0.975    39 C    0.956
                           162 H    0.946
    37   6 C    3.903 --    38 O    1.907    36 C    0.976   163 H    0.950
    38   8 O    2.052 --    37 C    1.907
    39   6 C    3.988 --    40 C    1.006   164 H    0.973   165 H    0.957
                            36 C    0.956
    40   6 C    3.980 --    39 C    1.006    41 S    0.994   167 H    0.972
                           166 H    0.971
    41  16 S    2.108 --    42 C    1.013    40 C    0.994
    42   6 C    3.976 --    41 S    1.013   170 H    0.982   169 H    0.982
                           168 H    0.978
    43   7 N    3.004 --    44 C    1.024   171 H    0.961   172 H    0.956
    44   6 C    3.988 --    43 N    1.024    45 C    0.992    47 C    0.946
                           173 H    0.943
    45   6 C    3.902 --    46 O    1.886    44 C    0.992   174 H    0.952
    46   8 O    2.036 --    45 C    1.886
    47   6 C    3.989 --    48 C    0.991   175 H    0.974   176 H    0.969
                            44 C    0.946
    48   6 C    3.996 --    50 C    1.007    49 C    1.004    47 C    0.991
                           177 H    0.971
    49   6 C    3.993 --    48 C    1.004   179 H    0.986   178 H    0.985
                           180 H    0.980
    50   6 C    3.995 --    48 C    1.007   181 H    0.987   183 H    0.983
                           182 H    0.978
    51   7 N    3.006 --    52 C    1.015   185 H    0.958   184 H    0.951
    52   6 C    3.985 --    51 N    1.015    53 C    0.984   186 H    0.964
                            55 C    0.940
    53   6 C    3.894 --    54 O    1.893    52 C    0.984   187 H    0.953
    54   8 O    2.032 --    53 C    1.893
    55   6 C    3.993 --    57 C    1.007    56 C    1.005   188 H    0.970
                            52 C    0.940
    56   6 C    3.995 --    55 C    1.005   189 H    0.988   191 H    0.986
                           190 H    0.983
    57   6 C    3.993 --    55 C    1.007   193 H    0.982   192 H    0.981
                           194 H    0.978
    58   7 N    3.004 --    59 C    1.012   196 H    0.957   195 H    0.946
    59   6 C    3.984 --    58 N    1.012    60 C    0.991   197 H    0.965
                            62 C    0.931
    60   6 C    3.898 --    61 O    1.895    59 C    0.991   198 H    0.952
    61   8 O    2.038 --    60 C    1.895
    62   6 C    3.993 --    63 C    1.009    64 C    1.009   199 H    0.972
                            59 C    0.931
    63   6 C    3.995 --    62 C    1.009   201 H    0.986   200 H    0.985
                           202 H    0.984
    64   6 C    3.995 --    62 C    1.009   203 H    0.981   204 H    0.978
                           205 H    0.976
    65   7 N    2.996 --    66 C    1.014   206 H    0.958   207 H    0.925
    66   6 C    3.984 --    65 N    1.014   208 H    0.965    69 C    0.965
                            67 C    0.952
    67   6 C    3.943 --    68 O    1.589    74 N    1.324    66 C    0.952
    68   8 O    1.922 --    67 C    1.589    74 N    0.190
    69   6 C    3.989 --    70 C    1.005   210 H    0.978   209 H    0.974
                            66 C    0.965
    70   6 C    3.933 --    69 C    1.005   212 H    0.966   211 H    0.963
                            71 C    0.916
    71   6 C    3.927 --    73 O    1.495    72 O    1.492    70 C    0.916
    72   8 O    1.770 --    71 C    1.492    73 O    0.220
    73   8 O    1.770 --    71 C    1.495    72 O    0.220
    74   7 N    3.488 --    67 C    1.324    75 C    0.977   213 H    0.923
                            68 O    0.190
    75   6 C    3.967 --    74 N    0.977    78 C    0.975   214 H    0.948
                            76 C    0.938
    76   6 C    3.950 --    77 O    1.612    82 N    1.319    75 C    0.938
    77   8 O    1.925 --    76 C    1.612    82 N    0.200
    78   6 C    3.984 --    79 C    0.990    75 C    0.975   216 H    0.973
                           215 H    0.970
    79   6 C    3.994 --    81 C    1.011    80 C    1.002    78 C    0.990
                           217 H    0.970
    80   6 C    3.993 --    79 C    1.002   219 H    0.985   220 H    0.985
                           218 H    0.981
    81   6 C    3.997 --    79 C    1.011   222 H    0.986   223 H    0.984
                           221 H    0.984
    82   7 N    3.451 --    76 C    1.319    83 C    0.981   224 H    0.757
                            77 O    0.200    23 C    0.113
    83   6 C    3.967 --    82 N    0.981    84 C    0.972    86 C    0.969
                           225 H    0.937
    84   6 C    3.881 --    85 O    1.871    83 C    0.972   226 H    0.880
    85   8 O    2.024 --    84 C    1.871
    86   6 C    3.962 --    83 C    0.969   228 H    0.967   227 H    0.964
                            87 C    0.909
    87   6 C    3.941 --    88 O    1.506    89 O    1.503    86 C    0.909
    88   8 O    1.829 --    87 C    1.506    89 O    0.220
    89   8 O    1.797 --    87 C    1.503    88 O    0.220
    90   7 N    2.989 --    91 C    1.011   229 H    0.963   230 H    0.958
    91   6 C    3.990 --    90 N    1.011    92 C    1.000   231 H    0.951
                            94 C    0.941
    92   6 C    3.910 --    93 O    1.887    91 C    1.000   232 H    0.950
    93   8 O    2.036 --    92 C    1.887
    94   6 C    3.990 --    95 C    1.008   234 H    0.970   233 H    0.969
                            91 C    0.941
    95   6 C    3.987 --    96 C    1.416    97 C    1.383    94 C    1.008
    96   6 C    3.991 --    98 C    1.447    95 C    1.416   235 H    0.972
                            99 C    0.104
    97   6 C    3.991 --    99 C    1.478    95 C    1.383   236 H    0.962
    98   6 C    3.987 --    96 C    1.447   100 C    1.374   237 H    0.970
    99   6 C    3.989 --    97 C    1.478   100 C    1.350   238 H    0.961
                            96 C    0.104
   100   6 C    3.929 --    98 C    1.374    99 C    1.350   101 O    1.071
   101   8 O    2.100 --   100 C    1.071   239 H    0.865
   102   1 H    1.000 --   240 H    0.998
   103   1 H    1.000 --   241 H    0.985
   104   1 H    1.000 --   242 H    0.992
   105   1 H    1.000 --   243 H    0.967
   106   1 H    1.000 --   244 H    0.964
   107   1 H    1.000 --   245 H    0.883
   108   1 H    1.000 --   246 H    0.952
   109   1 H    1.000 --   247 H    0.923
   110   1 H    0.999 --   248 H    0.919
   111   1 H    1.000 --   249 H    0.942
   112   1 H    1.000 --   250 H    0.964
   113   1 H    0.997 --   251 H    0.919
   114   1 H    1.000 --   252 H    0.990
   115   1 H    1.000 --   253 H    0.965
   116   1 H    1.000 --   254 H    0.907
   117   1 H    0.999 --   255 H    0.926
   118   1 H    1.000 --   256 H    0.983
   119   1 H    1.000 --   257 H    0.990
   120   1 H    1.000 --   258 H    0.983
   121   1 H    1.000 --   259 H    0.970
   122   1 H    1.000 --   260 H    0.963
   123   1 H    1.000 --   261 H    0.969
   124   1 H    0.999 --   262 H    0.921
   125   1 H    1.000 --   263 H    0.931
   126   1 H    1.000 --   264 H    0.965
   127   1 H    1.000 --   265 H    0.969
   128   1 H    1.000 --   266 H    0.969
   129   1 H    0.977 --     1 N    0.963
   130   1 H    0.973 --     1 N    0.957
   131   1 H    1.000 --     2 C    0.952
   132   1 H    0.995 --     5 C    0.968
   133   1 H    0.997 --     5 C    0.974
   134   1 H    0.995 --     6 C    0.959
   135   1 H    0.998 --     6 C    0.977
   136   1 H    0.996 --     8 C    0.977
   137   1 H    0.997 --     8 C    0.983
   138   1 H    0.998 --     8 C    0.974
   139   1 H    0.993 --    10 C    0.954
   140   1 H    0.996 --    13 C    0.976
   141   1 H    0.996 --    13 C    0.972
   142   1 H    0.995 --    14 C    0.974
   143   1 H    0.997 --    14 C    0.978
   144   1 H    0.995 --    15 C    0.965
   145   1 H    0.997 --    15 C    0.969
   146   1 H    0.956 --    16 N    0.923
   147   1 H    0.994 --    17 C    0.950
   148   1 H    0.996 --    20 C    0.958
   149   1 H    0.994 --    20 C    0.970
   150   1 H    0.993 --    23 C    0.827   224 H    0.140
   151   1 H    0.948 --    26 N    0.895
   152   1 H    0.992 --    27 C    0.952
   153   1 H    0.996 --    30 C    0.972
   154   1 H    0.996 --    30 C    0.971
   155   1 H    0.998 --    31 C    0.979
   156   1 H    0.997 --    31 C    0.977
   157   1 H    0.992 --    32 C    0.965
   158   1 H    0.995 --    32 C    0.972
   159   1 H    0.985 --    33 C    0.964
   160   1 H    0.985 --    33 C    0.967
   161   1 H    0.953 --    35 N    0.925
   162   1 H    0.991 --    36 C    0.946
   163   1 H    0.993 --    37 C    0.950
   164   1 H    0.995 --    39 C    0.973
   165   1 H    0.994 --    39 C    0.957
   166   1 H    0.996 --    40 C    0.971
   167   1 H    0.996 --    40 C    0.972
   168   1 H    0.995 --    42 C    0.978
   169   1 H    0.997 --    42 C    0.982
   170   1 H    0.996 --    42 C    0.982
   171   1 H    0.977 --    43 N    0.961
   172   1 H    0.974 --    43 N    0.956
   173   1 H    0.996 --    44 C    0.943
   174   1 H    0.996 --    45 C    0.952
   175   1 H    0.997 --    47 C    0.974
   176   1 H    0.998 --    47 C    0.969
   177   1 H    0.999 --    48 C    0.971
   178   1 H    0.998 --    49 C    0.985
   179   1 H    0.999 --    49 C    0.986
   180   1 H    0.997 --    49 C    0.980
   181   1 H    0.998 --    50 C    0.987
   182   1 H    0.998 --    50 C    0.978
   183   1 H    0.998 --    50 C    0.983
   184   1 H    0.975 --    51 N    0.951
   185   1 H    0.975 --    51 N    0.958
   186   1 H    0.997 --    52 C    0.964
   187   1 H    0.995 --    53 C    0.953
   188   1 H    0.998 --    55 C    0.970
   189   1 H    0.998 --    56 C    0.988
   190   1 H    0.999 --    56 C    0.983
   191   1 H    0.997 --    56 C    0.986
   192   1 H    0.998 --    57 C    0.981
   193   1 H    0.997 --    57 C    0.982
   194   1 H    0.998 --    57 C    0.978
   195   1 H    0.973 --    58 N    0.946
   196   1 H    0.973 --    58 N    0.957
   197   1 H    0.997 --    59 C    0.965
   198   1 H    0.996 --    60 C    0.952
   199   1 H    0.999 --    62 C    0.972
   200   1 H    0.997 --    63 C    0.985
   201   1 H    0.999 --    63 C    0.986
   202   1 H    0.997 --    63 C    0.984
   203   1 H    0.998 --    64 C    0.981
   204   1 H    0.997 --    64 C    0.978
   205   1 H    0.999 --    64 C    0.976
   206   1 H    0.976 --    65 N    0.958
   207   1 H    0.967 --    65 N    0.925
   208   1 H    0.998 --    66 C    0.965
   209   1 H    0.998 --    69 C    0.974
   210   1 H    0.998 --    69 C    0.978
   211   1 H    0.997 --    70 C    0.963
   212   1 H    0.998 --    70 C    0.966
   213   1 H    0.956 --    74 N    0.923
   214   1 H    0.996 --    75 C    0.948
   215   1 H    0.996 --    78 C    0.970
   216   1 H    0.996 --    78 C    0.973
   217   1 H    0.999 --    79 C    0.970
   218   1 H    0.998 --    80 C    0.981
   219   1 H    0.998 --    80 C    0.985
   220   1 H    0.997 --    80 C    0.985
   221   1 H    0.999 --    81 C    0.984
   222   1 H    0.998 --    81 C    0.986
   223   1 H    0.999 --    81 C    0.984
   224   1 H    0.940 --    82 N    0.757   150 H    0.140
   225   1 H    0.994 --    83 C    0.937
   226   1 H    0.990 --    84 C    0.880
   227   1 H    0.997 --    86 C    0.964
   228   1 H    0.996 --    86 C    0.967
   229   1 H    0.976 --    90 N    0.963
   230   1 H    0.976 --    90 N    0.958
   231   1 H    0.999 --    91 C    0.951
   232   1 H    0.996 --    92 C    0.950
   233   1 H    0.997 --    94 C    0.969
   234   1 H    0.995 --    94 C    0.970
   235   1 H    0.998 --    96 C    0.972
   236   1 H    0.996 --    97 C    0.962
   237   1 H    0.998 --    98 C    0.970
   238   1 H    0.996 --    99 C    0.961
   239   1 H    0.886 --   101 O    0.865
   240   1 H    1.000 --   102 H    0.998
   241   1 H    1.000 --   103 H    0.985
   242   1 H    1.000 --   104 H    0.992
   243   1 H    1.000 --   105 H    0.967
   244   1 H    1.000 --   106 H    0.964
   245   1 H    0.999 --   107 H    0.883
   246   1 H    0.999 --   108 H    0.952
   247   1 H    0.999 --   109 H    0.923
   248   1 H    1.000 --   110 H    0.919
   249   1 H    1.000 --   111 H    0.942
   250   1 H    1.000 --   112 H    0.964
   251   1 H    1.000 --   113 H    0.919
   252   1 H    1.000 --   114 H    0.990
   253   1 H    0.999 --   115 H    0.965
   254   1 H    0.999 --   116 H    0.907
   255   1 H    0.999 --   117 H    0.926
   256   1 H    1.000 --   118 H    0.983
   257   1 H    1.000 --   119 H    0.990
   258   1 H    1.000 --   120 H    0.983
   259   1 H    1.000 --   121 H    0.970
   260   1 H    1.000 --   122 H    0.963
   261   1 H    1.000 --   123 H    0.969
   262   1 H    1.000 --   124 H    0.921
   263   1 H    1.000 --   125 H    0.931
   264   1 H    1.000 --   126 H    0.965
   265   1 H    1.000 --   127 H    0.969
   266   1 H    1.000 --   128 H    0.969
   267   1 H    0.911 --    34 N    0.897
   268   1 H    0.907 --    34 N    0.895
   269   1 H    0.911 --    34 N    0.894
   270   1 H    0.969 --    25 N    0.934
 ---------------------------------------------------------------------------

Topologies differ in total number of bonds
Writing topology from bond orders to xtbtopo.mol

molecular dipole:
                 x           y           z       tot (Debye)
 q only:       -9.109      61.231      54.204
   full:       -8.414      61.969      52.476     207.503
molecular quadrupole (traceless):
                xx          xy          yy          xz          yz          zz
 q only:     3474.743     889.384   -2396.410     770.862   -5046.328   -1078.332
  q+dip:     3457.951     822.524   -2556.724     706.026   -4952.409    -901.227
   full:     3446.964     821.884   -2555.722     704.751   -4950.419    -891.242


           -------------------------------------------------
          | TOTAL ENERGY             -346.923647854403 Eh   |
          | GRADIENT NORM               1.493315776977 Eh/α |
          | HOMO-LUMO GAP               0.931575559457 eV   |
           -------------------------------------------------
########################################################################
[WARNING] Runtime exception occurred
-3- restart_readRestart: Dimension missmatch in restart file.
-2- restart_readRestart: Multiplicity missmatch in restart file.
-1- restart_readRestart: Number of electron missmatch in restart file.
########################################################################

------------------------------------------------------------------------
 * finished run on 2025/05/05 at 16:40:29.396     
------------------------------------------------------------------------
 total:
 * wall-time:     0 d,  0 h,  0 min,  1.197 sec
 *  cpu-time:     0 d,  0 h,  0 min, 35.616 sec
 * ratio c/w:    29.751 speedup
 SCF:
 * wall-time:     0 d,  0 h,  0 min,  1.169 sec
 *  cpu-time:     0 d,  0 h,  0 min, 34.872 sec
 * ratio c/w:    29.829 speedup

