      -----------------------------------------------------------      
     |                   =====================                   |     
     |                           x T B                           |     
     |                   =====================                   |     
     |                         S. Grimme                         |     
     |          Mulliken Center for Theoretical Chemistry        |     
     |                    University of Bonn                     |     
      -----------------------------------------------------------      

   * xtb version 6.7.1 (edcfbbe) compiled by 'conda@afd1a870197c' on 2025-04-11

   xtb is free software: you can redistribute it and/or modify it under
   the terms of the GNU Lesser General Public License as published by
   the Free Software Foundation, either version 3 of the License, or
   (at your option) any later version.
   
   xtb is distributed in the hope that it will be useful,
   but WITHOUT ANY WARRANTY; without even the implied warranty of
   MERCHANTABILITY or FITNESS FOR A PARTICULAR PURPOSE.  See the
   GNU Lesser General Public License for more details.
   
   Cite this work as:
   * C. Bannwarth, E. Caldeweyher, S. Ehlert, A. Hansen, P. Pracht,
     J. Seibert, S. Spicher, S. Grimme, WIREs Comput. Mol. Sci., 2020, 11,
     e01493. DOI: 10.1002/wcms.1493
   
   for GFN2-xTB:
   * C. Bannwarth, S. Ehlert and S. Grimme., J. Chem. Theory Comput., 2019,
     15, 1652-1671. DOI: 10.1021/acs.jctc.8b01176
   for GFN1-xTB:
   * S. Grimme, C. Bannwarth, P. Shushkov, J. Chem. Theory Comput., 2017,
     13, 1989-2009. DOI: 10.1021/acs.jctc.7b00118
   for GFN0-xTB:
   * P. Pracht, E. Caldeweyher, S. Ehlert, S. Grimme, ChemRxiv, 2019, preprint.
     DOI: 10.26434/chemrxiv.8326202.v1
   for GFN-FF:
   * S. Spicher and S. Grimme, Angew. Chem. Int. Ed., 2020, 59, 15665-15673.
     DOI: 10.1002/anie.202004239
   
   for ALPB and GBSA implicit solvation:
   * S. Ehlert, M. Stahn, S. Spicher, S. Grimme, J. Chem. Theory Comput.,
     2021, 17, 4250-4261. DOI: 10.1021/acs.jctc.1c00471
   
   for ddCOSMO and CPCM-X implicit solvation:
   * M. Stahn, S. Ehlert, S. Grimme, J. Phys. Chem. A,
     2023, XX, XXXX-XXXX. DOI: 10.1021/acs.jpca.3c04382
   
   for DFT-D4:
   * E. Caldeweyher, C. Bannwarth and S. Grimme, J. Chem. Phys., 2017,
     147, 034112. DOI: 10.1063/1.4993215
   * E. Caldeweyher, S. Ehlert, A. Hansen, H. Neugebauer, S. Spicher,
     C. Bannwarth and S. Grimme, J. Chem. Phys., 2019, 150, 154122.
     DOI: 10.1063/1.5090222
   * E. Caldeweyher, J.-M. Mewes, S. Ehlert and S. Grimme, Phys. Chem. Chem. Phys.
     2020, 22, 8499-8512. DOI: 10.1039/D0CP00502A
   
   for sTDA-xTB:
   * S. Grimme and C. Bannwarth, J. Chem. Phys., 2016, 145, 054103.
     DOI: 10.1063/1.4959605
   
   in the mass-spec context:
   * V. Asgeirsson, C. Bauer and S. Grimme, Chem. Sci., 2017, 8, 4879.
     DOI: 10.1039/c7sc00601b
   * J. Koopman and S. Grimme, ACS Omega 2019, 4, 12, 15120-15133.
     DOI: 10.1021/acsomega.9b02011
   
   for metadynamics refer to:
   * S. Grimme, J. Chem. Theory Comput., 2019, 155, 2847-2862
     DOI: 10.1021/acs.jctc.9b00143
   
   for SPH calculations refer to:
   * S. Spicher and S. Grimme, J. Chem. Theory Comput., 2021, 17, 1701-1714
     DOI: 10.1021/acs.jctc.0c01306
   
   for ONIOM refer to:
   * C. Plett, A. Katbashev, S. Ehlert, S. Grimme, M. Bursch,
     Phys. Chem. Chem. Phys., 2023, 25, 17860-17868. DOI: 10.1039/D3CP02178E
   
   for DIPRO refer to:
   * J. Kohn, N. Gildemeister, S. Grimme, D. Fazzi, A. Hansen,
     J. Chem. Phys., 2023, just accepted.
   
   for PTB refer to:
   * S. Grimme, M. Mueller, A. Hansen, J. Chem. Phys., 2023, 158, 124111.
     DOI: 10.1063/5.0137838
   
   with help from (in alphabetical order)
   P. Atkinson, C. Bannwarth, F. Bohle, G. Brandenburg, E. Caldeweyher
   M. Checinski, S. Dohm, S. Ehlert, S. Ehrlich, I. Gerasimov, C. Hölzer
   A. Katbashev, J. Kohn, J. Koopman, C. Lavigne, S. Lehtola, F. März, M. Müller,
   F. Musil, H. Neugebauer, J. Pisarek, C. Plett, P. Pracht, F. Pultar,
   J. Seibert, P. Shushkov, S. Spicher, M. Stahn, M. Steiner, T. Strunk,
   J. Stückrath, T. Rose, and J. Unsleber
   
 * started run on 2025/05/05 at 17:14:27.865     
   ID    Z sym.   atoms
    1    7 N      1, 9, 10, 18, 26, 33, 34, 40, 43, 44, 50, 58, 64, 72, 73,
                  81, 88, 90-92, 99, 106, 108, 109
    2    6 C      2, 3, 5-7, 11, 12, 14-17, 19, 20, 22, 23, 25, 27, 28, 30,
                  31, 35, 36, 38, 39, 41, 42, 45, 46, 48, 51, 52, 54-57,
                  59-63, 65, 66, 68-71, 74, 75, 77, 78, 82, 83, 85-87, 89,
                  93, 94, 96-98, 100, 101, 103-105, 107
    3    8 O      4, 8, 13, 21, 29, 32, 37, 47, 53, 67, 76, 79, 80, 84, 95,
                  102
    4   16 S      24, 49
    5    1 H      110-253

           -------------------------------------------------
          |                Calculation Setup                |
           -------------------------------------------------

          program call               : xtb /tmp/tmpu7_ob99n/HIE/input.xyz --alpb ether --chrg 5 --input /tmp/tmpu7_ob99n/HIE/constraints.inp --gfn 2
          hostname                   : fedora
          coordinate file            : /tmp/tmpu7_ob99n/HIE/input.xyz
          omp threads                :                    32


molecular fragmentation (1/2 indicates fragments):
111111111111111111111111111111111111111111111111111111111111111111111111
222222222222222222222222222222222222222222222222222222111111111111111111
111111111111111111111111111111111111111111111112222222222222222222222222
2222222222222222222222222222222111221
# atoms in fragment 1/2:   141   112
 fragment masses (1/2) :     1042.26      563.88
CMA distance (Bohr)    :  15.281
constraining FC (au)   :  0.0500

           -------------------------------------------------
          |                 G F N 2 - x T B                 |
           -------------------------------------------------

        Reference                      10.1021/acs.jctc.8b01176
      * Hamiltonian:
        H0-scaling (s, p, d)           1.850000    2.230000    2.230000
        zeta-weighting                 0.500000
      * Dispersion:
        s8                             2.700000
        a1                             0.520000
        a2                             5.000000
        s9                             5.000000
      * Repulsion:
        kExp                           1.500000    1.000000
        rExp                           1.000000
      * Coulomb:
        alpha                          2.000000
        third order                    shell-resolved
        anisotropic                    true
        a3                             3.000000
        a5                             4.000000
        cn-shift                       1.200000
        cn-exp                         4.000000
        max-rad                        5.000000

      * Solvation model:               ALPB
        Solvent                        ether
        Parameter file                 internal GFN2-xTB/ALPB
        Dielectric constant                4.3300E+00
        Reference state                gsolv [1 M gas/solution]
        Free energy shift                  4.9534E-03 Eh       3.1083E+00 kcal/mol
        Temperature                        2.9815E+02 K
        Density                            7.1300E-01 kg/L
        Solvent mass                       7.4120E+01 g/mol
        Interaction kernel             P16
        Born radius scaling (c1)           1.5847E+00
        Born radii integrator          GBOBC
        Born offset                        0.0000E+00 a0       0.0000E+00 AA
        H-bond correction              true
        Ion screening                  false
        Surface tension                    1.0000E-05 Eh       1.5569E+01 dyn/cm
        Grid points                               230 per atom

          ...................................................
          :                      SETUP                      :
          :.................................................:
          :  # basis functions                 592          :
          :  # atomic orbitals                 590          :
          :  # shells                          364          :
          :  # electrons                       635          :
          :  max. iterations                   250          :
          :  Hamiltonian                  GFN2-xTB          :
          :  restarted?                      false          :
          :  GBSA solvation                   true          :
          :  PC potential                    false          :
          :  electronic temp.          300.0000000     K    :
          :  accuracy                    1.0000000          :
          :  -> integral cutoff          0.2500000E+02      :
          :  -> integral neglect         0.1000000E-07      :
          :  -> SCF convergence          0.1000000E-05 Eh   :
          :  -> wf. convergence          0.1000000E-03 e    :
          :  Broyden damping             0.4000000          :
          :  net charge                          5          :
          :  unpaired electrons                  0          :
          ...................................................

 iter      E             dE          RMSdq      gap      omega  full diag
   1   -358.3895734 -0.358390E+03  0.464E+00    0.03       0.0  T
   2   -358.3238871  0.656863E-01  0.357E+00    0.36       1.0  T
   3   -359.7627916 -0.143890E+01  0.265E+00    0.27       1.0  T
   4   -359.2928382  0.469953E+00  0.234E+00    0.27       1.0  T
   5   -360.5376730 -0.124483E+01  0.193E+00    0.02       1.0  T
   6   -360.6538871 -0.116214E+00  0.232E+00    0.01       1.0  T
   7   -360.4150211  0.238866E+00  0.164E+00    0.01       1.0  T
   8   -360.6743826 -0.259361E+00  0.130E+00    0.00       1.0  T
   9   -360.4065260  0.267857E+00  0.179E+00    0.21       1.0  T
  10   -361.2114910 -0.804965E+00  0.803E-01    0.03       1.0  T
  11   -361.2066544  0.483663E-02  0.805E-01    0.12       1.0  T
  12   -360.6736047  0.533050E+00  0.192E+00    0.06       1.0  T
  13   -360.4247932  0.248811E+00  0.145E+00    0.10       1.0  T
  14   -361.1719743 -0.747181E+00  0.786E-01    0.13       1.0  T
  15   -361.1847226 -0.127483E-01  0.778E-01    0.10       1.0  T
  16   -361.2005794 -0.158569E-01  0.777E-01    0.01       1.0  T
  17   -361.2381374 -0.375580E-01  0.702E-01    0.01       1.0  T
  18   -361.2391942 -0.105672E-02  0.700E-01    0.01       1.0  T
  19   -361.0861306  0.153064E+00  0.962E-01    0.04       1.0  T
  20   -361.2136164 -0.127486E+00  0.104E+00    0.02       1.0  T
  21   -361.2111058  0.251064E-02  0.714E-01    0.09       1.0  T
  22   -361.2633209 -0.522151E-01  0.573E-01    0.08       1.0  T
  23   -361.2472723  0.160486E-01  0.540E-01    0.01       1.0  T
  24   -361.3080750 -0.608027E-01  0.395E-01    0.04       1.0  T
  25   -361.3084527 -0.377690E-03  0.406E-01    0.02       1.0  T
  26   -361.3052472  0.320544E-02  0.405E-01    0.04       1.0  T
  27   -361.3231737 -0.179265E-01  0.312E-01    0.02       1.0  T
  28   -361.3302185 -0.704471E-02  0.292E-01    0.03       1.0  T
  29   -361.3303989 -0.180409E-03  0.260E-01    0.01       1.0  T
  30   -361.3292304  0.116843E-02  0.281E-01    0.05       1.0  T
  31   -361.3487604 -0.195300E-01  0.151E-01    0.02       1.0  T
  32   -361.3519108 -0.315035E-02  0.928E-02    0.02       1.0  T
  33   -361.3443317  0.757903E-02  0.172E-01    0.02       1.0  T
  34   -361.3520439 -0.771220E-02  0.551E-02    0.02       1.0  T
  35   -361.3512849  0.759035E-03  0.986E-02    0.03       1.0  T
  36   -361.3527444 -0.145944E-02  0.525E-02    0.02       1.0  T
  37   -361.3529870 -0.242623E-03  0.237E-02    0.02       1.0  T
  38   -361.3530002 -0.132659E-04  0.234E-02    0.02       1.0  T
  39   -361.3531373 -0.137011E-03  0.107E-02    0.02       1.0  T
  40   -361.3531676 -0.303057E-04  0.333E-03    0.02       1.9  T
  41   -361.3531681 -0.543027E-06  0.242E-03    0.02       2.6  T
  42   -361.3531692 -0.109657E-05  0.937E-04    0.02       6.7  T
  43   -361.3531690  0.177502E-06  0.149E-03    0.02       4.2  T
  44   -361.3531693 -0.232019E-06  0.878E-04    0.02       7.2  T
  45   -361.3531695 -0.257792E-06  0.111E-04    0.02      56.5  T

   *** convergence criteria satisfied after 45 iterations ***

         #    Occupation            Energy/Eh            Energy/eV
      -------------------------------------------------------------
         1        2.0000           -0.8215507             -22.3555
       ...           ...                  ...                  ...
       312        1.9039           -0.4662579             -12.6875
       313        1.8860           -0.4660861             -12.6828
       314        1.8644           -0.4659083             -12.6780
       315        1.8170           -0.4655951             -12.6695
       316        1.7231           -0.4651436             -12.6572
       317        1.5971           -0.4647050             -12.6453
       318        1.1537           -0.4636531             -12.6166 (HOMO)
       319        0.7456           -0.4628291             -12.5942 (LUMO)
       320        0.4053           -0.4619930             -12.5715
       321                         -0.3643893              -9.9155
       322                         -0.3639464              -9.9035
       323                         -0.3627481              -9.8709
       ...                                ...                  ...
       590                          1.1352665              30.8922
      -------------------------------------------------------------
                  HL-Gap            0.0008240 Eh            0.0224 eV
             Fermi-level           -0.4633454 Eh          -12.6083 eV

 SCC (total)                   0 d,  0 h,  0 min,  1.991 sec
 SCC setup                      ...        0 min,  0.004 sec (  0.197%)
 Dispersion                     ...        0 min,  0.010 sec (  0.513%)
 classical contributions        ...        0 min,  0.001 sec (  0.027%)
 integral evaluation            ...        0 min,  0.018 sec (  0.883%)
 iterations                     ...        0 min,  1.880 sec ( 94.463%)
 molecular gradient             ...        0 min,  0.070 sec (  3.519%)
 printout                       ...        0 min,  0.008 sec (  0.395%)

         :::::::::::::::::::::::::::::::::::::::::::::::::::::
         ::                     SUMMARY                     ::
         :::::::::::::::::::::::::::::::::::::::::::::::::::::
         :: total energy            -355.320880637889 Eh    ::
         :: total w/o Gsasa/hb      -355.194351413236 Eh    ::
         :: gradient norm              1.215862317544 Eh/a0 ::
         :: HOMO-LUMO gap              0.022423032395 eV    ::
         ::.................................................::
         :: SCC energy              -361.328839625481 Eh    ::
         :: -> isotropic ES            1.616682449260 Eh    ::
         :: -> anisotropic ES          0.004953608722 Eh    ::
         :: -> anisotropic XC          0.228653420585 Eh    ::
         :: -> dispersion             -0.282400393251 Eh    ::
         :: -> Gsolv                  -0.872812417194 Eh    ::
         ::    -> Gelec               -0.746283192541 Eh    ::
         ::    -> Gsasa               -0.093261355937 Eh    ::
         ::    -> Ghb                 -0.038221306294 Eh    ::
         ::    -> Gshift               0.004953437577 Eh    ::
         :: repulsion energy           6.007958987592 Eh    ::
         :: add. restraining           0.000000000000 Eh    ::
         :: total charge               5.000000000918 e     ::
         :::::::::::::::::::::::::::::::::::::::::::::::::::::

           -------------------------------------------------
          |                Property Printout                |
           -------------------------------------------------

    * Orbital Energies and Occupations

         #    Occupation            Energy/Eh            Energy/eV
      -------------------------------------------------------------
         1        2.0000           -0.8215507             -22.3555
       ...           ...                  ...                  ...
       306        2.0000           -0.4778572             -13.0032
       307        2.0000           -0.4742465             -12.9049
       308        2.0000           -0.4740760             -12.9003
       309        1.9923           -0.4687096             -12.7542
       310        1.9721           -0.4674708             -12.7205
       311        1.9396           -0.4667198             -12.7001
       312        1.9039           -0.4662579             -12.6875
       313        1.8860           -0.4660861             -12.6828
       314        1.8644           -0.4659083             -12.6780
       315        1.8170           -0.4655951             -12.6695
       316        1.7231           -0.4651436             -12.6572
       317        1.5971           -0.4647050             -12.6453
       318        1.1537           -0.4636531             -12.6166 (HOMO)
       319        0.7456           -0.4628291             -12.5942 (LUMO)
       320        0.4053           -0.4619930             -12.5715
       321                         -0.3643893              -9.9155
       322                         -0.3639464              -9.9035
       323                         -0.3627481              -9.8709
       324                         -0.3397902              -9.2462
       325                         -0.3245453              -8.8313
       326                         -0.3207621              -8.7284
       327                         -0.3151770              -8.5764
       328                         -0.3128338              -8.5126
       329                         -0.3114182              -8.4741
       ...                                ...                  ...
       590                          1.1352665              30.8922
      -------------------------------------------------------------
                  HL-Gap            0.0008240 Eh            0.0224 eV
             Fermi-level           -0.4633454 Eh          -12.6083 eV

     #   Z          covCN         q      C6AA      α(0)
     1   7 N        2.629    -0.353    29.106     8.012
     2   6 C        3.784     0.024    20.186     6.400
     3   6 C        2.756     0.255    22.705     7.803
     4   8 O        0.859    -0.496    23.697     6.527
     5   6 C        3.806    -0.070    21.831     6.651
     6   6 C        3.811    -0.103    22.452     6.745
     7   6 C        2.741     0.285    22.171     7.709
     8   8 O        0.859    -0.465    23.033     6.435
     9   7 N        2.642    -0.275    27.118     7.734
    10   7 N        2.686    -0.166    24.596     7.366
    11   6 C        3.811     0.012    20.372     6.425
    12   6 C        2.759     0.266    22.503     7.768
    13   8 O        0.857    -0.485    23.464     6.494
    14   6 C        3.861    -0.028    21.036     6.523
    15   6 C        3.817    -0.073    21.885     6.658
    16   6 C        3.762    -0.130    23.034     6.842
    17   6 C        3.760    -0.123    22.901     6.822
    18   7 N        2.687    -0.174    24.761     7.390
    19   6 C        3.805     0.020    20.243     6.405
    20   6 C        2.761     0.276    22.325     7.738
    21   8 O        0.860    -0.490    23.570     6.509
    22   6 C        3.849    -0.090    22.180     6.699
    23   6 C        3.796    -0.060    21.665     6.628
    24  16 S        1.980     0.055   138.828    19.831
    25   6 C        3.752    -0.106    22.593     6.778
    26   7 N        2.688    -0.171    24.701     7.381
    27   6 C        3.807     0.030    20.064     6.376
    28   6 C        2.759     0.264    22.544     7.775
    29   8 O        0.858    -0.492    23.607     6.514
    30   6 C        3.820    -0.109    22.557     6.759
    31   6 C        2.743     0.281    22.249     7.723
    32   8 O        0.860    -0.490    23.560     6.508
    33   7 N        2.641    -0.270    26.989     7.716
    34   7 N        2.686    -0.163    24.534     7.356
    35   6 C        3.798     0.016    20.317     6.418
    36   6 C        2.751     0.258    22.651     7.793
    37   8 O        0.858    -0.491    23.587     6.511
    38   6 C        3.813    -0.093    22.264     6.716
    39   6 C        3.086     0.069    26.353     8.415
    40   7 N        1.975    -0.212    26.421     7.623
    41   6 C        3.047    -0.039    28.915     8.819
    42   6 C        2.103     0.071    29.099     8.716
    43   7 N        2.829    -0.056    22.312     7.015
    44   7 N        2.685    -0.154    24.337     7.327
    45   6 C        3.814     0.012    20.357     6.422
    46   6 C        2.753     0.277    22.320     7.736
    47   8 O        0.861    -0.438    22.452     6.353
    48   6 C        3.804    -0.034    21.183     6.552
    49  16 S        1.912    -0.146   147.203    20.421
    50   7 N        2.688    -0.169    24.647     7.373
    51   6 C        3.788     0.023    20.203     6.402
    52   6 C        2.752     0.260    22.615     7.787
    53   8 O        0.857    -0.478    23.312     6.473
    54   6 C        3.815    -0.081    22.040     6.682
    55   6 C        3.031     0.062    26.590     8.458
    56   6 C        2.993     0.030    27.318     8.574
    57   6 C        3.073    -0.007    28.129     8.696
    58   7 N        1.904    -0.184    25.790     7.529
    59   6 C        3.044     0.077    26.237     8.401
    60   6 C        2.904    -0.006    28.172     8.703
    61   6 C        2.903    -0.012    28.311     8.724
    62   6 C        2.908    -0.031    28.780     8.797
    63   6 C        2.913    -0.024    28.597     8.769
    64   7 N        2.687    -0.126    23.740     7.236
    65   6 C        3.794     0.021    20.229     6.405
    66   6 C        2.769     0.206    23.634     7.962
    67   8 O        0.856    -0.353    20.757     6.108
    68   6 C        3.806    -0.086    22.132     6.697
    69   6 C        3.802    -0.089    22.190     6.707
    70   6 C        3.802    -0.103    22.467     6.748
    71   6 C        3.733    -0.055    21.648     6.641
    72   7 N        3.486    -0.176    24.798     7.396
    73   7 N        2.626    -0.326    28.394     7.914
    74   6 C        3.786     0.025    20.170     6.397
    75   6 C        2.760     0.271    22.428     7.755
    76   8 O        0.859    -0.454    22.791     6.401
    77   6 C        3.810    -0.076    21.939     6.667
    78   6 C        2.687     0.393    20.365     7.385
    79   8 O        0.857    -0.456    22.836     6.407
    80   8 O        0.856    -0.449    22.688     6.386
    81   7 N        2.698    -0.135    23.926     7.265
    82   6 C        3.807     0.011    20.389     6.428
    83   6 C        2.787     0.268    22.482     7.767
    84   8 O        0.861    -0.479    23.319     6.474
    85   6 C        3.821    -0.079    21.986     6.673
    86   6 C        3.814    -0.092    22.242     6.712
    87   6 C        3.741    -0.033    21.249     6.577
    88   7 N        2.704    -0.145    24.147     7.298
    89   6 C        2.734     0.232    23.129     7.874
    90   7 N        2.652    -0.261    26.774     7.685
    91   7 N        2.660    -0.265    26.854     7.696
    92   7 N        2.775    -0.053    22.260     7.007
    93   6 C        3.837     0.024    20.137     6.384
    94   6 C        2.763     0.188    23.969     8.018
    95   8 O        0.856    -0.361    20.915     6.132
    96   6 C        3.854    -0.075    21.901     6.656
    97   6 C        3.845    -0.079    21.974     6.668
    98   6 C        3.777    -0.027    21.081     6.541
    99   7 N        2.630    -0.298    27.690     7.815
   100   6 C        3.782     0.025    20.169     6.398
   101   6 C        2.764     0.188    23.973     8.018
   102   8 O        0.856    -0.351    20.729     6.104
   103   6 C        3.805    -0.084    22.101     6.693
   104   6 C        3.812    -0.092    22.250     6.714
   105   6 C        3.739    -0.034    21.255     6.578
   106   7 N        2.700    -0.137    23.964     7.271
   107   6 C        2.734     0.228    23.211     7.888
   108   7 N        2.646    -0.259    26.727     7.678
   109   7 N        2.652    -0.254    26.606     7.661
   110   1 H        0.980    -0.002     3.090     2.747
   111   1 H        0.980    -0.004     3.127     2.763
   112   1 H        0.980     0.004     2.984     2.699
   113   1 H        0.980     0.038     2.466     2.454
   114   1 H        0.980    -0.004     3.127     2.763
   115   1 H        0.980    -0.005     3.134     2.766
   116   1 H        0.980     0.036     2.489     2.465
   117   1 H        0.980    -0.013     3.288     2.834
   118   1 H        0.980    -0.014     3.308     2.842
   119   1 H        0.980     0.018     2.760     2.596
   120   1 H        0.980     0.003     3.000     2.706
   121   1 H        0.980     0.005     2.955     2.686
   122   1 H        0.980    -0.020     3.424     2.891
   123   1 H        0.980    -0.012     3.267     2.824
   124   1 H        0.980     0.003     3.001     2.707
   125   1 H        0.980     0.024     2.659     2.548
   126   1 H        0.980    -0.039     3.815     3.052
   127   1 H        0.860     0.157     1.356     1.824
   128   1 H        0.860     0.180     1.216     1.727
   129   1 H        0.927     0.045     2.380     2.412
   130   1 H        0.927     0.064     2.151     2.293
   131   1 H        0.927     0.075     2.034     2.230
   132   1 H        0.927     0.075     2.033     2.230
   133   1 H        0.927     0.086     1.916     2.165
   134   1 H        0.861     0.236     0.940     1.519
   135   1 H        0.861     0.244     0.907     1.492
   136   1 H        0.861     0.221     1.003     1.569
   137   1 H        0.927     0.105     1.740     2.063
   138   1 H        0.927     0.049     2.332     2.388
   139   1 H        0.927     0.046     2.366     2.405
   140   1 H        0.927     0.051     2.304     2.374
   141   1 H        0.926     0.059     2.212     2.326
   142   1 H        0.927     0.047     2.357     2.401
   143   1 H        0.927     0.060     2.195     2.317
   144   1 H        0.926     0.040     2.447     2.446
   145   1 H        0.927     0.044     2.392     2.418
   146   1 H        0.927     0.045     2.379     2.412
   147   1 H        0.861     0.216     1.030     1.590
   148   1 H        0.926     0.096     1.823     2.111
   149   1 H        0.927     0.084     1.934     2.175
   150   1 H        0.927     0.081     1.971     2.196
   151   1 H        0.927     0.092     1.862     2.134
   152   1 H        0.927     0.099     1.791     2.093
   153   1 H        0.927     0.096     1.819     2.109
   154   1 H        0.927     0.101     1.777     2.085
   155   1 H        0.927     0.100     1.789     2.092
   156   1 H        0.861     0.205     1.082     1.630
   157   1 H        0.927     0.098     1.806     2.101
   158   1 H        0.927     0.103     1.759     2.074
   159   1 H        0.927     0.076     2.024     2.225
   160   1 H        0.861     0.217     1.021     1.583
   161   1 H        0.861     0.240     0.922     1.504
   162   1 H        0.861     0.232     0.954     1.530
   163   1 H        0.927     0.105     1.739     2.062
   164   1 H        0.927     0.099     1.792     2.093
   165   1 H        0.927     0.117     1.634     1.999
   166   1 H        0.929     0.092     1.858     2.131
   167   1 H        0.861     0.236     0.938     1.517
   168   1 H        0.927     0.104     1.751     2.069
   169   1 H        0.927     0.096     1.819     2.109
   170   1 H        0.927     0.104     1.748     2.068
   171   1 H        0.921     0.189     1.159     1.684
   172   1 H        0.861     0.218     1.019     1.581
   173   1 H        0.927     0.120     1.610     1.984
   174   1 H        0.927     0.168     1.274     1.765
   175   1 H        0.927     0.119     1.618     1.989
   176   1 H        0.929     0.091     1.868     2.137
   177   1 H        0.929     0.094     1.837     2.119
   178   1 H        0.929     0.103     1.761     2.075
   179   1 H        0.929     0.089     1.889     2.149
   180   1 H        0.929     0.094     1.845     2.124
   181   1 H        0.861     0.229     0.967     1.541
   182   1 H        0.927     0.105     1.744     2.065
   183   1 H        0.929     0.084     1.934     2.175
   184   1 H        0.927     0.073     2.055     2.242
   185   1 H        0.927     0.095     1.831     2.116
   186   1 H        0.926     0.076     2.023     2.224
   187   1 H        0.927     0.083     1.951     2.184
   188   1 H        0.926     0.077     2.015     2.220
   189   1 H        0.927     0.076     2.022     2.224
   190   1 H        0.927     0.117     1.639     2.002
   191   1 H        0.926     0.117     1.636     2.000
   192   1 H        0.860     0.196     1.127     1.663
   193   1 H        0.860     0.197     1.121     1.659
   194   1 H        0.927     0.105     1.737     2.061
   195   1 H        0.927     0.117     1.635     2.000
   196   1 H        0.927     0.111     1.684     2.029
   197   1 H        0.861     0.232     0.956     1.531
   198   1 H        0.926     0.109     1.705     2.042
   199   1 H        0.926     0.070     2.089     2.260
   200   1 H        0.927     0.070     2.088     2.260
   201   1 H        0.927     0.072     2.059     2.244
   202   1 H        0.927     0.079     1.985     2.203
   203   1 H        0.927     0.107     1.721     2.051
   204   1 H        0.927     0.072     2.061     2.245
   205   1 H        0.861     0.241     0.918     1.501
   206   1 H        0.861     0.247     0.895     1.482
   207   1 H        0.861     0.252     0.876     1.466
   208   1 H        0.861     0.247     0.894     1.481
   209   1 H        0.927     0.092     1.861     2.133
   210   1 H        0.929     0.091     1.869     2.137
   211   1 H        0.927     0.079     1.990     2.206
   212   1 H        0.926     0.071     2.075     2.253
   213   1 H        0.927     0.080     1.978     2.199
   214   1 H        0.927     0.070     2.081     2.256
   215   1 H        0.927     0.080     1.981     2.201
   216   1 H        0.927     0.084     1.940     2.178
   217   1 H        0.860     0.199     1.110     1.650
   218   1 H        0.860     0.211     1.049     1.605
   219   1 H        0.927     0.105     1.739     2.062
   220   1 H        0.929     0.100     1.785     2.089
   221   1 H        0.927     0.090     1.881     2.145
   222   1 H        0.927     0.079     1.989     2.206
   223   1 H        0.927     0.077     2.015     2.220
   224   1 H        0.927     0.077     2.010     2.217
   225   1 H        0.926     0.089     1.884     2.146
   226   1 H        0.927     0.090     1.877     2.143
   227   1 H        0.861     0.247     0.895     1.482
   228   1 H        0.861     0.257     0.855     1.449
   229   1 H        0.861     0.243     0.912     1.496
   230   1 H        0.861     0.247     0.893     1.480
   231   1 H        0.980     0.002     3.013     2.712
   232   1 H        0.980     0.005     2.967     2.691
   233   1 H        0.980    -0.003     3.106     2.754
   234   1 H        0.980    -0.005     3.140     2.769
   235   1 H        0.980    -0.008     3.182     2.787
   236   1 H        0.980     0.008     2.915     2.668
   237   1 H        0.980    -0.017     3.366     2.867
   238   1 H        0.980     0.010     2.874     2.649
   239   1 H        0.980     0.000     3.047     2.728
   240   1 H        0.980    -0.016     3.344     2.858
   241   1 H        0.980    -0.002     3.081     2.743
   242   1 H        0.980    -0.007     3.169     2.782
   243   1 H        0.980     0.022     2.694     2.565
   244   1 H        0.980     0.011     2.865     2.645
   245   1 H        0.980    -0.001     3.065     2.735
   246   1 H        0.980    -0.022     3.451     2.903
   247   1 H        0.980     0.037     2.487     2.464
   248   1 H        0.860     0.302     0.706     1.316
   249   1 H        0.860     0.303     0.705     1.315
   250   1 H        0.860     0.305     0.698     1.308
   251   1 H        0.860     0.251     0.880     1.470
   252   1 H        0.860     0.232     0.956     1.531
   253   1 H        0.858     0.233     0.954     1.530

 Mol. C6AA /au·bohr⁶  :     543770.111630
 Mol. C8AA /au·bohr⁸  :   12101539.163105
 Mol. α(0) /au        :       1117.250312


Wiberg/Mayer (AO) data.
largest (>0.10) Wiberg bond orders for each atom

 ---------------------------------------------------------------------------
     #   Z sym  total        # sym  WBO       # sym  WBO       # sym  WBO
 ---------------------------------------------------------------------------
     1   7 N    2.970 --     2 C    1.012   127 H    0.960   128 H    0.944
     2   6 C    3.973 --     1 N    1.012     5 C    0.973   129 H    0.954
                             3 C    0.939
     3   6 C    3.948 --     4 O    1.605    10 N    1.334     2 C    0.939
     4   8 O    1.931 --     3 C    1.605    10 N    0.199
     5   6 C    3.985 --     6 C    1.007   130 H    0.976     2 C    0.973
                           131 H    0.972
     6   6 C    3.964 --     5 C    1.007   132 H    0.958   133 H    0.956
                             7 C    0.945
     7   6 C    3.933 --     8 O    1.622     9 N    1.340     6 C    0.945
     8   8 O    1.901 --     7 C    1.622     9 N    0.192
     9   7 N    3.408 --     7 C    1.340   134 H    0.926   135 H    0.919
                             8 O    0.192
    10   7 N    3.487 --     3 C    1.334    11 C    0.960   136 H    0.920
                             4 O    0.199
    11   6 C    3.954 --    14 C    0.969    10 N    0.960   137 H    0.949
                            12 C    0.945
    12   6 C    3.948 --    13 O    1.614    18 N    1.304    11 C    0.945
    13   8 O    1.941 --    12 C    1.614    18 N    0.190
    14   6 C    3.990 --    16 C    1.003    15 C    0.997    11 C    0.969
                           138 H    0.965
    15   6 C    3.996 --    17 C    1.020    14 C    0.997   140 H    0.975
                           139 H    0.972
    16   6 C    3.991 --    14 C    1.003   141 H    0.985   142 H    0.982
                           143 H    0.980
    17   6 C    3.993 --    15 C    1.020   144 H    0.987   146 H    0.983
                           145 H    0.982
    18   7 N    3.462 --    12 C    1.304    19 C    0.973   147 H    0.921
                            13 O    0.190
    19   6 C    3.964 --    22 C    0.985    18 N    0.973   148 H    0.949
                            20 C    0.939
    20   6 C    3.954 --    21 O    1.621    26 N    1.312    19 C    0.939
    21   8 O    1.941 --    20 C    1.621    26 N    0.195
    22   6 C    3.981 --    23 C    1.001    19 C    0.985   150 H    0.970
                           149 H    0.966
    23   6 C    3.956 --    22 C    1.001    24 S    0.990   151 H    0.967
                           152 H    0.958
    24  16 S    2.078 --    25 C    1.028    23 C    0.990
    25   6 C    3.941 --    24 S    1.028   153 H    0.971   155 H    0.962
                           154 H    0.961
    26   7 N    3.475 --    20 C    1.312    27 C    0.965   156 H    0.925
                            21 O    0.195
    27   6 C    3.960 --    30 C    0.979    26 N    0.965    28 C    0.946
                           157 H    0.935
    28   6 C    3.959 --    29 O    1.613    34 N    1.318    27 C    0.946
    29   8 O    1.932 --    28 C    1.613    34 N    0.201
    30   6 C    3.987 --    27 C    0.979   159 H    0.965   158 H    0.956
                            31 C    0.951
    31   6 C    3.948 --    32 O    1.646    33 N    1.327    30 C    0.951
    32   8 O    1.952 --    31 C    1.646    33 N    0.204
    33   7 N    3.416 --    31 C    1.327   160 H    0.932   161 H    0.920
                            32 O    0.204
    34   7 N    3.485 --    28 C    1.318    35 C    0.977   162 H    0.903
                            29 O    0.201
    35   6 C    3.957 --    34 N    0.977    38 C    0.970   163 H    0.941
                            36 C    0.930
    36   6 C    3.949 --    37 O    1.597    44 N    1.339    35 C    0.930
    37   8 O    1.924 --    36 C    1.597    44 N    0.199
    38   6 C    3.977 --    39 C    1.020    35 C    0.970   165 H    0.951
                           164 H    0.942
    39   6 C    3.896 --    41 C    1.558    40 N    1.177    38 C    1.020
    40   7 N    3.074 --    42 C    1.718    39 C    1.177
    41   6 C    3.893 --    39 C    1.558    43 N    1.174   166 H    0.965
                            42 C    0.120
    42   6 C    3.269 --    40 N    1.718    43 N    1.336    41 C    0.120
    43   7 N    3.570 --    42 C    1.336    41 C    1.174   253 H    0.913
    44   7 N    3.498 --    36 C    1.339    45 C    0.978   167 H    0.906
                            37 O    0.199
    45   6 C    3.953 --    48 C    0.980    44 N    0.978   168 H    0.946
                            46 C    0.922
    46   6 C    3.954 --    47 O    1.672    50 N    1.277    45 C    0.922
    47   8 O    2.010 --    46 C    1.672    50 N    0.197
    48   6 C    3.958 --    49 S    0.997    45 C    0.980   170 H    0.959
                           169 H    0.958
    49  16 S    1.994 --    48 C    0.997   171 H    0.915
    50   7 N    3.467 --    46 C    1.277    51 C    0.985   172 H    0.916
                            47 O    0.197
    51   6 C    3.948 --    50 N    0.985    54 C    0.973   173 H    0.932
                            52 C    0.918
    52   6 C    3.948 --    53 O    1.602    64 N    1.351    51 C    0.918
    53   8 O    1.935 --    52 C    1.602    64 N    0.196
    54   6 C    3.962 --    55 C    1.093    51 C    0.973   175 H    0.938
                           174 H    0.864
    55   6 C    3.761 --    56 C    1.281    57 C    1.140    54 C    1.093
    56   6 C    3.945 --    58 N    1.507    55 C    1.281   176 H    0.963
    57   6 C    3.963 --    60 C    1.398    59 C    1.235    55 C    1.140
    58   7 N    2.851 --    56 C    1.507    59 C    1.174
    59   6 C    3.959 --    61 C    1.376    57 C    1.235    58 N    1.174
    60   6 C    3.885 --    57 C    1.398    62 C    1.346   177 H    0.960
    61   6 C    3.892 --    59 C    1.376    63 C    1.367   178 H    0.961
    62   6 C    3.945 --    63 C    1.459    60 C    1.346   179 H    0.969
    63   6 C    3.930 --    62 C    1.459    61 C    1.367   180 H    0.966
    64   7 N    3.500 --    52 C    1.351    65 C    0.963   181 H    0.907
                            53 O    0.196
    65   6 C    3.958 --    66 C    0.989    64 N    0.963    68 C    0.961
                           182 H    0.940
    66   6 C    3.892 --    67 O    1.882    65 C    0.989   183 H    0.947
    67   8 O    2.070 --    66 C    1.882
    68   6 C    3.978 --    69 C    1.001   184 H    0.965   185 H    0.963
                            65 C    0.961
    69   6 C    3.987 --    70 C    1.003    68 C    1.001   186 H    0.971
                           187 H    0.968
    70   6 C    3.984 --    71 C    1.004    69 C    1.003   189 H    0.978
                           188 H    0.962
    71   6 C    3.905 --    70 C    1.004   190 H    0.969   191 H    0.966
                            72 N    0.946
    72   7 N    3.646 --    71 C    0.946   249 H    0.896   250 H    0.894
                           248 H    0.890
    73   7 N    3.002 --    74 C    1.018   192 H    0.945   193 H    0.938
    74   6 C    3.936 --    73 N    1.018    77 C    0.998   194 H    0.920
                            75 C    0.906
    75   6 C    3.934 --    76 O    1.618    81 N    1.332    74 C    0.906
    76   8 O    1.938 --    75 C    1.618    81 N    0.193
    77   6 C    3.805 --    74 C    0.998   196 H    0.953   195 H    0.944
                            78 C    0.806
    78   6 C    3.893 --    79 O    1.546    80 O    1.518    77 C    0.806
    79   8 O    1.871 --    78 C    1.546    80 O    0.254
    80   8 O    1.840 --    78 C    1.518    79 O    0.254
    81   7 N    3.489 --    75 C    1.332    82 C    0.980   197 H    0.909
                            76 O    0.193
    82   6 C    3.940 --    81 N    0.980    85 C    0.973   198 H    0.942
                            83 C    0.923
    83   6 C    3.945 --    84 O    1.632    92 N    1.291    82 C    0.923
    84   8 O    1.942 --    83 C    1.632    92 N    0.187
    85   6 C    3.982 --    86 C    1.004    82 C    0.973   200 H    0.971
                           199 H    0.967
    86   6 C    3.984 --    85 C    1.004    87 C    0.996   201 H    0.971
                           202 H    0.970
    87   6 C    3.947 --    86 C    0.996    88 N    0.982   204 H    0.963
                           203 H    0.949
    88   7 N    3.457 --    89 C    1.324    87 C    0.982   251 H    0.880
                            91 N    0.103    90 N    0.100
    89   6 C    3.976 --    88 N    1.324    91 N    1.315    90 N    1.306
    90   7 N    3.384 --    89 C    1.306   206 H    0.920   205 H    0.917
                            88 N    0.100
    91   7 N    3.389 --    89 C    1.315   208 H    0.920   207 H    0.915
                            88 N    0.103
    92   7 N    3.511 --    83 C    1.291    93 C    0.983    98 C    0.965
                            84 O    0.187
    93   6 C    3.963 --    92 N    0.983    94 C    0.974    96 C    0.957
                           209 H    0.944
    94   6 C    3.890 --    95 O    1.893    93 C    0.974   210 H    0.949
    95   8 O    2.030 --    94 C    1.893
    96   6 C    3.984 --    97 C    1.012   212 H    0.969   211 H    0.967
                            93 C    0.957
    97   6 C    3.990 --    96 C    1.012    98 C    1.005   214 H    0.975
                           213 H    0.969
    98   6 C    3.954 --    97 C    1.005    92 N    0.965   215 H    0.963
                           216 H    0.958
    99   7 N    2.943 --   100 C    1.023   217 H    0.943   218 H    0.935
   100   6 C    3.939 --    99 N    1.023   101 C    0.989   103 C    0.945
                           219 H    0.911
   101   6 C    3.890 --   102 O    1.885   100 C    0.989   220 H    0.944
   102   8 O    2.041 --   101 C    1.885
   103   6 C    3.972 --   104 C    1.007   222 H    0.971   221 H    0.969
                           100 C    0.945
   104   6 C    3.985 --   103 C    1.007   105 C    1.002   224 H    0.972
                           223 H    0.960
   105   6 C    3.951 --   104 C    1.002   106 N    0.975   225 H    0.963
                           226 H    0.960
   106   7 N    3.479 --   107 C    1.330   105 C    0.975   252 H    0.911
                           108 N    0.105   109 N    0.104
   107   6 C    3.977 --   106 N    1.330   108 N    1.311   109 N    1.302
   108   7 N    3.389 --   107 C    1.311   228 H    0.917   227 H    0.915
                           106 N    0.105
   109   7 N    3.384 --   107 C    1.302   229 H    0.922   230 H    0.921
                           106 N    0.104
   110   1 H    1.000 --   231 H    0.997
   111   1 H    1.000 --   232 H    0.994
   112   1 H    1.000 --   233 H    0.993
   113   1 H    0.998 --   234 H    0.879
   114   1 H    1.000 --   235 H    0.955
   115   1 H    1.000 --   236 H    0.919
   116   1 H    0.999 --   237 H    0.888
   117   1 H    0.999 --   238 H    0.924
   118   1 H    1.000 --   239 H    0.954
   119   1 H    1.000 --   240 H    0.983
   120   1 H    1.000 --   241 H    0.989
   121   1 H    1.000 --   242 H    0.980
   122   1 H    1.000 --   243 H    0.969
   123   1 H    1.000 --   244 H    0.990
   124   1 H    1.000 --   245 H    0.990
   125   1 H    0.999 --   246 H    0.926
   126   1 H    0.998 --   247 H    0.926
   127   1 H    0.974 --     1 N    0.960
   128   1 H    0.966 --     1 N    0.944
   129   1 H    0.986 --     2 C    0.954
   130   1 H    0.996 --     5 C    0.976
   131   1 H    0.993 --     5 C    0.972
   132   1 H    0.993 --     6 C    0.958
   133   1 H    0.992 --     6 C    0.956
   134   1 H    0.944 --     9 N    0.926
   135   1 H    0.939 --     9 N    0.919
   136   1 H    0.951 --    10 N    0.920
   137   1 H    0.988 --    11 C    0.949
   138   1 H    0.998 --    14 C    0.965
   139   1 H    0.998 --    15 C    0.972
   140   1 H    0.997 --    15 C    0.975
   141   1 H    0.997 --    16 C    0.985
   142   1 H    0.998 --    16 C    0.982
   143   1 H    0.996 --    16 C    0.980
   144   1 H    0.998 --    17 C    0.987
   145   1 H    0.997 --    17 C    0.982
   146   1 H    0.998 --    17 C    0.983
   147   1 H    0.953 --    18 N    0.921
   148   1 H    0.990 --    19 C    0.949
   149   1 H    0.992 --    22 C    0.966
   150   1 H    0.993 --    22 C    0.970
   151   1 H    0.987 --    23 C    0.967
   152   1 H    0.973 --    23 C    0.958
   153   1 H    0.990 --    25 C    0.971
   154   1 H    0.972 --    25 C    0.961
   155   1 H    0.971 --    25 C    0.962
   156   1 H    0.958 --    26 N    0.925
   157   1 H    0.990 --    27 C    0.935
   158   1 H    0.989 --    30 C    0.956
   159   1 H    0.994 --    30 C    0.965
   160   1 H    0.953 --    33 N    0.932
   161   1 H    0.942 --    33 N    0.920
   162   1 H    0.946 --    34 N    0.903
   163   1 H    0.988 --    35 C    0.941
   164   1 H    0.987 --    38 C    0.942
   165   1 H    0.983 --    38 C    0.951
   166   1 H    0.991 --    41 C    0.965
   167   1 H    0.944 --    44 N    0.906
   168   1 H    0.989 --    45 C    0.946
   169   1 H    0.982 --    48 C    0.958
   170   1 H    0.989 --    48 C    0.959
   171   1 H    0.964 --    49 S    0.915
   172   1 H    0.952 --    50 N    0.916
   173   1 H    0.983 --    51 C    0.932
   174   1 H    0.940 --    54 C    0.864
   175   1 H    0.978 --    54 C    0.938
   176   1 H    0.990 --    56 C    0.963
   177   1 H    0.989 --    60 C    0.960
   178   1 H    0.987 --    61 C    0.961
   179   1 H    0.992 --    62 C    0.969
   180   1 H    0.991 --    63 C    0.966
   181   1 H    0.947 --    64 N    0.907
   182   1 H    0.989 --    65 C    0.940
   183   1 H    0.993 --    66 C    0.947
   184   1 H    0.994 --    68 C    0.965
   185   1 H    0.990 --    68 C    0.963
   186   1 H    0.994 --    69 C    0.971
   187   1 H    0.993 --    69 C    0.968
   188   1 H    0.994 --    70 C    0.962
   189   1 H    0.994 --    70 C    0.978
   190   1 H    0.986 --    71 C    0.969
   191   1 H    0.986 --    71 C    0.966
   192   1 H    0.960 --    73 N    0.945
   193   1 H    0.954 --    73 N    0.938
   194   1 H    0.958 --    74 C    0.920
   195   1 H    0.983 --    77 C    0.944
   196   1 H    0.980 --    77 C    0.953
   197   1 H    0.946 --    81 N    0.909
   198   1 H    0.985 --    82 C    0.942
   199   1 H    0.993 --    85 C    0.967
   200   1 H    0.994 --    85 C    0.971
   201   1 H    0.994 --    86 C    0.971
   202   1 H    0.993 --    86 C    0.970
   203   1 H    0.986 --    87 C    0.949
   204   1 H    0.994 --    87 C    0.963
   205   1 H    0.942 --    90 N    0.917
   206   1 H    0.939 --    90 N    0.920
   207   1 H    0.937 --    91 N    0.915
   208   1 H    0.939 --    91 N    0.920
   209   1 H    0.988 --    93 C    0.944
   210   1 H    0.989 --    94 C    0.949
   211   1 H    0.993 --    96 C    0.967
   212   1 H    0.994 --    96 C    0.969
   213   1 H    0.993 --    97 C    0.969
   214   1 H    0.995 --    97 C    0.975
   215   1 H    0.991 --    98 C    0.963
   216   1 H    0.990 --    98 C    0.958
   217   1 H    0.957 --    99 N    0.943
   218   1 H    0.950 --    99 N    0.935
   219   1 H    0.937 --   100 C    0.911
   220   1 H    0.983 --   101 C    0.944
   221   1 H    0.990 --   103 C    0.969
   222   1 H    0.990 --   103 C    0.971
   223   1 H    0.994 --   104 C    0.960
   224   1 H    0.993 --   104 C    0.972
   225   1 H    0.992 --   105 C    0.963
   226   1 H    0.992 --   105 C    0.960
   227   1 H    0.939 --   108 N    0.915
   228   1 H    0.934 --   108 N    0.917
   229   1 H    0.941 --   109 N    0.922
   230   1 H    0.938 --   109 N    0.921
   231   1 H    1.000 --   110 H    0.997
   232   1 H    1.000 --   111 H    0.994
   233   1 H    1.000 --   112 H    0.993
   234   1 H    0.999 --   113 H    0.879
   235   1 H    1.000 --   114 H    0.955
   236   1 H    1.000 --   115 H    0.919
   237   1 H    0.999 --   116 H    0.888
   238   1 H    0.999 --   117 H    0.924
   239   1 H    1.000 --   118 H    0.954
   240   1 H    0.999 --   119 H    0.983
   241   1 H    1.000 --   120 H    0.989
   242   1 H    1.000 --   121 H    0.980
   243   1 H    0.999 --   122 H    0.969
   244   1 H    1.000 --   123 H    0.990
   245   1 H    1.000 --   124 H    0.990
   246   1 H    1.000 --   125 H    0.926
   247   1 H    0.999 --   126 H    0.926
   248   1 H    0.908 --    72 N    0.890
   249   1 H    0.908 --    72 N    0.896
   250   1 H    0.907 --    72 N    0.894
   251   1 H    0.937 --    88 N    0.880
   252   1 H    0.946 --   106 N    0.911
   253   1 H    0.946 --    43 N    0.913
 ---------------------------------------------------------------------------

Topologies differ in total number of bonds
Writing topology from bond orders to xtbtopo.mol

molecular dipole:
                 x           y           z       tot (Debye)
 q only:        9.279     -30.267     283.294
   full:       10.191     -30.672     284.567     727.948
molecular quadrupole (traceless):
                xx          xy          yy          xz          yz          zz
 q only:    -8205.999    -200.311   -7667.764     881.532   -2582.510   15873.763
  q+dip:    -8255.088    -231.194   -7736.952     959.015   -2650.813   15992.040
   full:    -8262.724    -229.162   -7730.883     959.133   -2648.242   15993.607


           -------------------------------------------------
          | TOTAL ENERGY             -355.320880637889 Eh   |
          | GRADIENT NORM               1.215862317544 Eh/α |
          | HOMO-LUMO GAP               0.022423032395 eV   |
           -------------------------------------------------
########################################################################
[WARNING] Runtime exception occurred
-2- restart_readRestart: Dimension missmatch in restart file.
-1- restart_readRestart: Number of electron missmatch in restart file.
########################################################################

------------------------------------------------------------------------
 * finished run on 2025/05/05 at 17:14:29.884     
------------------------------------------------------------------------
 total:
 * wall-time:     0 d,  0 h,  0 min,  2.019 sec
 *  cpu-time:     0 d,  0 h,  1 min,  2.736 sec
 * ratio c/w:    31.069 speedup
 SCF:
 * wall-time:     0 d,  0 h,  0 min,  1.993 sec
 *  cpu-time:     0 d,  0 h,  1 min,  2.030 sec
 * ratio c/w:    31.124 speedup

